##############################################################################
#                                                                            #
# In-Ir            # IrIn2                                         # 1504039 #
#                                                                            #
##############################################################################
#                                                                            #
#                           Pearson's Crystal Data                           #
#      Crystal Structure Database for Inorganic Compounds (on DVD)           #
#                              Release 2022/23                               #
#                  Editors: Pierre Villars and Karin Cenzual                 #
#                                                                            #
#   Copyright (c) ASM International & Material Phases Data System (MPDS),    #
# Switzerland & National Institute for Materials Science (NIMS), Japan, 2022 #
#                   All rights reserved. Version 2022.07                     #
#                                                                            #
#   This copy of Pearson's Crystal Data is licensed to:                      #
#   University of Alberta, Chemistry Department, 1-5 Installations License         #
#                                                                            #
##############################################################################

data_1504039
_audit_creation_date                     2023-07-09
_audit_creation_method
;
Pearson's Crystal Data browser
;
#_database_code_PCD                      1504039
_database_code_PDF                       04-008-0055

# Entry summary

_chemical_formula_structural             'Ir In~2~'
_chemical_formula_sum                    'In2 Ir'
_chemical_name_mineral                   ?
_chemical_compound_source                ?
_chemical_name_structure_type            Mg~2~Cu,oF48,70
_chemical_formula_weight                 421.9

# Bibliographic data

_publ_section_title
;
Structure, Chemical Bonding, and Properties of ZrIn~2~, IrIn~2~, and Ti~3~Rh~2~In~3~
;
_journal_coden_ASTM                      JSSCBI
_journal_name_full                       'J. Solid State Chem.'
_journal_year                            2000
_journal_volume                          150
_journal_page_first                      19
_journal_page_last                       30
_journal_language                        English
loop_
 _publ_author_name
 _publ_author_address
'Zumdick M.F.'
;
Munster University (WWU)
Institut fur Anorganische Chemie
Munster
Germany
;
'Landrum G.A.'
;
Aachen RWTH University
Institut fur Anorganische Chemie
Aachen
Germany
;
'Dronskowski R.'
;
Aachen RWTH University
Institut fur Anorganische Chemie
Aachen
Germany
;
'Hoffmann R.D.'
;
Munster University (WWU)
Institut fur Anorganische Chemie
Munster
Germany
;
'Pottgen R.'
;
Munster University (WWU)
Institut fur Anorganische Chemie
Munster
Germany
;

# Standardized crystallographic data

_cell_length_a                           5.3467
_cell_length_b                           9.801
_cell_length_c                           18.049
_cell_angle_alpha                        90
_cell_angle_beta                         90
_cell_angle_gamma                        90
_cell_volume                             945.8
_cell_formula_units_Z                    16
_space_group_IT_number                   70
_space_group_name_H-M_alt                'F d d d (origin choice 2)'
loop_
 _space_group_symop_id
 _space_group_symop_operation_xyz
 1 'x, y, z'
 2 '1/4-x, 1/4-y, z'
 3 '1/4-x, y, 1/4-z'
 4 '-x, -y, -z'
 5 '-x, -1/4+y, -1/4+z'
 6 'x, 1/4-y, 1/4-z'
 7 '-1/4+x, -y, -1/4+z'
 8 '-1/4+x, -1/4+y, -z'
 9 'x, 1/2+y, 1/2+z'
 10 '1/4-x, 3/4-y, 1/2+z'
 11 '1/4-x, 1/2+y, 3/4-z'
 12 '-x, 1/2-y, 1/2-z'
 13 '-x, 1/4+y, 1/4+z'
 14 'x, 3/4-y, 3/4-z'
 15 '-1/4+x, 1/2-y, 1/4+z'
 16 '-1/4+x, 1/4+y, 1/2-z'
 17 '1/2+x, y, 1/2+z'
 18 '3/4-x, 1/4-y, 1/2+z'
 19 '3/4-x, y, 3/4-z'
 20 '1/2-x, -y, 1/2-z'
 21 '1/2-x, -1/4+y, 1/4+z'
 22 '1/2+x, 1/4-y, 3/4-z'
 23 '1/4+x, -y, 1/4+z'
 24 '1/4+x, -1/4+y, 1/2-z'
 25 '1/2+x, 1/2+y, z'
 26 '3/4-x, 3/4-y, z'
 27 '3/4-x, 1/2+y, 1/4-z'
 28 '1/2-x, 1/2-y, -z'
 29 '1/2-x, 1/4+y, -1/4+z'
 30 '1/2+x, 3/4-y, 1/4-z'
 31 '1/4+x, 1/2-y, -1/4+z'
 32 '1/4+x, 1/4+y, -z'
loop_
 _atom_type_symbol
 In
 Ir
loop_
 _atom_site_label
 _atom_site_type_symbol
 _atom_site_symmetry_multiplicity
 _atom_site_Wyckoff_symbol
 _atom_site_fract_x
 _atom_site_fract_y
 _atom_site_fract_z
 _atom_site_occupancy
 In1 In 16 g 0.125 0.125 0.03892 1
 Ir Ir 16 g 0.125 0.125 0.49499 1
 In2 In 16 f 0.125 0.46827 0.125 1


_exptl_crystal_colour                    'gray light'
_exptl_crystal_density_meas              ?
_exptl_crystal_density_diffrn            11.85
_cell_measurement_temperature            ?
_cell_measurement_radiation              'X-rays, Cu Ka1'
_cell_measurement_reflns_used            ?
_diffrn_ambient_temperature              ?
_diffrn_measurement_device               'automatic diffractometer'
_diffrn_measurement_device_type          'Enraf-Nonius CAD4'
_diffrn_radiation_type                   'X-rays, Mo Ka'
_diffrn_radiation_wavelength             0.71073
_diffrn_reflns_number                    3693
_diffrn_reflns_theta_min                 2
_diffrn_reflns_theta_max                 35
_exptl_absorpt_coefficient_mu            75.04
_exptl_absorpt_correction_type           empirical
_computing_structure_solution            'direct methods'
_refine_ls_number_parameters             17
_refine_ls_number_reflns                 522
_refine_ls_R_factor_gt                   0.0447
_refine_ls_wR_factor_gt                  0.0462

# End of data set 1504039

