##############################################################################
#                                                                            #
# Fe-Si            # FeSi                                          # 1520544 #
#                                                                            #
##############################################################################
#                                                                            #
#                           Pearson's Crystal Data                           #
#      Crystal Structure Database for Inorganic Compounds (on DVD)           #
#                              Release 2022/23                               #
#                  Editors: Pierre Villars and Karin Cenzual                 #
#                                                                            #
#   Copyright (c) ASM International & Material Phases Data System (MPDS),    #
# Switzerland & National Institute for Materials Science (NIMS), Japan, 2022 #
#                   All rights reserved. Version 2022.07                     #
#                                                                            #
#   This copy of Pearson's Crystal Data is licensed to:                      #
#   University of Alberta, Chemistry Department, 1-5 Installations License         #
#                                                                            #
##############################################################################

data_1520544
_audit_creation_date                     2023-07-09
_audit_creation_method
;
Pearson's Crystal Data browser
;
#_database_code_PCD                      1520544
_database_code_PDF                       04-011-5926

# Entry summary

_chemical_formula_structural             'Fe Si'
_chemical_formula_sum                    'Fe Si'
_chemical_name_mineral                   naquite
_chemical_compound_source                ?
_chemical_name_structure_type            FeSi,cP8,198
_chemical_formula_weight                 83.9

# Bibliographic data

_publ_section_title
;
A high-pressure study of \e-FeSi, between 0 and 8.5 GPa, by time-of-flight neutron powder diffraction
;
_journal_coden_ASTM                      JACGAR
_journal_name_full                       'J. Appl. Crystallogr.'
_journal_year                            1996
_journal_volume                          29
_journal_page_first                      215
_journal_page_last                       218
_journal_language                        English
loop_
 _publ_author_name
 _publ_author_address
'Wood I.G.'
;
University College London (UCL)
Research School of Geological and Geophysical Sciences
London
United Kingdom
;
'David W.I.F.'
;
Science and Technology Facilities Council (STFC)
Rutherford Appleton Laboratory (STFC)
Chilton-Didcot
United Kingdom
;
'Hull S.'
;
Science and Technology Facilities Council (STFC)
Rutherford Appleton Laboratory (STFC)
Chilton-Didcot
United Kingdom
;
'Price G.D.'
;
London University
Research School of Geological and Geophysical Sciences
London
United Kingdom
;

# Standardized crystallographic data

_cell_length_a                           4.4844
_cell_length_b                           4.4844
_cell_length_c                           4.4844
_cell_angle_alpha                        90
_cell_angle_beta                         90
_cell_angle_gamma                        90
_cell_volume                             90.2
_cell_formula_units_Z                    4
_space_group_IT_number                   198
_space_group_name_H-M_alt                'P 21 3'
loop_
 _space_group_symop_id
 _space_group_symop_operation_xyz
 1 'x, y, z'
 2 '1/2-x, -y, 1/2+z'
 3 '-x, 1/2+y, 1/2-z'
 4 '1/2-y, -z, 1/2+x'
 5 '-y, 1/2+z, 1/2-x'
 6 '1/2-z, -x, 1/2+y'
 7 '-z, 1/2+x, 1/2-y'
 8 '1/2+x, 1/2-y, -z'
 9 '1/2+y, 1/2-z, -x'
 10 'y, z, x'
 11 '1/2+z, 1/2-x, -y'
 12 'z, x, y'
loop_
 _atom_type_symbol
 Si
 Fe
loop_
 _atom_site_label
 _atom_site_type_symbol
 _atom_site_symmetry_multiplicity
 _atom_site_Wyckoff_symbol
 _atom_site_fract_x
 _atom_site_fract_y
 _atom_site_fract_z
 _atom_site_occupancy
 Si Si 4 a 0.0917 0.0917 0.0917 1
 Fe Fe 4 a 0.386 0.386 0.386 1


_exptl_crystal_colour                    ?
_exptl_crystal_density_meas              ?
_exptl_crystal_density_diffrn            6.18
_cell_measurement_temperature            ?
_cell_measurement_pressure               110000
_cell_measurement_radiation              'neutrons, time-of-flight'
_cell_measurement_reflns_used            ?
_diffrn_ambient_pressure                 110000
_diffrn_ambient_temperature              ?
_diffrn_measurement_device               'automatic diffractometer'
_diffrn_measurement_device_type
;
United Kingdom, Chilton-Didcot, Rutherford Appleton Laboratory, ISIS Facility, POLARIS
;
_diffrn_radiation_type                   'neutrons, time-of-flight'
_diffrn_reflns_number                    ?
_exptl_absorpt_coefficient_mu            ?
_exptl_absorpt_correction_type           ?
_computing_structure_solution            'starting values from the literature'
_refine_ls_number_parameters             20
_refine_ls_number_reflns                 ?
_refine_ls_R_factor_gt                   ?
_refine_ls_wR_factor_gt                  ?
_pd_proc_ls_proof_R_factor               0.061
_pd_proc_ls_proof_wR_factor              0.057
_refine_ls_R_I_factor                    ?

# End of data set 1520544

