##############################################################################
#                                                                            #
# Ir-Sb            # IrSb3                                         # 1535458 #
#                                                                            #
##############################################################################
#                                                                            #
#                           Pearson's Crystal Data                           #
#      Crystal Structure Database for Inorganic Compounds (on DVD)           #
#                              Release 2022/23                               #
#                  Editors: Pierre Villars and Karin Cenzual                 #
#                                                                            #
#   Copyright (c) ASM International & Material Phases Data System (MPDS),    #
# Switzerland & National Institute for Materials Science (NIMS), Japan, 2022 #
#                   All rights reserved. Version 2022.07                     #
#                                                                            #
#   This copy of Pearson's Crystal Data is licensed to:                      #
#   University of Alberta, Chemistry Department, 1-5 Installations License         #
#                                                                            #
##############################################################################

data_1535458
_audit_creation_date                     2023-07-09
_audit_creation_method
;
Pearson's Crystal Data browser
;
#_database_code_PCD                      1535458
_database_code_PDF                       ?

# Entry summary

_chemical_formula_structural             'Ir Sb~3~'
_chemical_formula_sum                    'Ir Sb2.80'
_chemical_name_mineral                   ?
_chemical_compound_source                ?
_chemical_name_structure_type            CoAs~3~,cI32,204
_chemical_formula_weight                 557.5

# Bibliographic data

_publ_section_title
;
Structural, electronic, and thermal properties of indium-filled In~x~Ir~4~Sb~12~ skutterudites
;
_journal_coden_ASTM                      SSSCFJ
_journal_name_full                       'Solid State Sci.'
_journal_year                            2018
_journal_volume                          80
_journal_page_first                      170
_journal_page_last                       177
_journal_language                        English
loop_
 _publ_author_name
 _publ_author_address
'Wallace M.K.'
;
Oregon State University (OSU)
Department of Chemistry
Corvallis
U.S.A. Oregon
;
'Li J.'
;
Oregon State University (OSU)
Department of Chemistry
Corvallis
U.S.A. Oregon
;
'Subramanian M.A.'
;
Oregon State University (OSU)
Department of Chemistry
Corvallis
U.S.A. Oregon
;

# Standardized crystallographic data

_cell_length_a                           9.2516
_cell_length_b                           9.2516
_cell_length_c                           9.2516
_cell_angle_alpha                        90
_cell_angle_beta                         90
_cell_angle_gamma                        90
_cell_volume                             791.9
_cell_formula_units_Z                    8
_space_group_IT_number                   204
_space_group_name_H-M_alt                'I m -3'
loop_
 _space_group_symop_id
 _space_group_symop_operation_xyz
 1 'x, y, z'
 2 '-x, -y, -z'
 3 '-x, -y, z'
 4 '-x, y, -z'
 5 '-x, y, z'
 6 '-y, -z, -x'
 7 '-y, -z, x'
 8 '-y, z, -x'
 9 '-y, z, x'
 10 '-z, -x, -y'
 11 '-z, -x, y'
 12 '-z, x, -y'
 13 '-z, x, y'
 14 'x, -y, -z'
 15 'x, -y, z'
 16 'x, y, -z'
 17 'y, -z, -x'
 18 'y, -z, x'
 19 'y, z, -x'
 20 'y, z, x'
 21 'z, -x, -y'
 22 'z, -x, y'
 23 'z, x, -y'
 24 'z, x, y'
 25 '1/2+x, 1/2+y, 1/2+z'
 26 '1/2-x, 1/2-y, 1/2-z'
 27 '1/2-x, 1/2-y, 1/2+z'
 28 '1/2-x, 1/2+y, 1/2-z'
 29 '1/2-x, 1/2+y, 1/2+z'
 30 '1/2-y, 1/2-z, 1/2-x'
 31 '1/2-y, 1/2-z, 1/2+x'
 32 '1/2-y, 1/2+z, 1/2-x'
 33 '1/2-y, 1/2+z, 1/2+x'
 34 '1/2-z, 1/2-x, 1/2-y'
 35 '1/2-z, 1/2-x, 1/2+y'
 36 '1/2-z, 1/2+x, 1/2-y'
 37 '1/2-z, 1/2+x, 1/2+y'
 38 '1/2+x, 1/2-y, 1/2-z'
 39 '1/2+x, 1/2-y, 1/2+z'
 40 '1/2+x, 1/2+y, 1/2-z'
 41 '1/2+y, 1/2-z, 1/2-x'
 42 '1/2+y, 1/2-z, 1/2+x'
 43 '1/2+y, 1/2+z, 1/2-x'
 44 '1/2+y, 1/2+z, 1/2+x'
 45 '1/2+z, 1/2-x, 1/2-y'
 46 '1/2+z, 1/2-x, 1/2+y'
 47 '1/2+z, 1/2+x, 1/2-y'
 48 '1/2+z, 1/2+x, 1/2+y'
loop_
 _atom_type_symbol
 Sb
 Ir
loop_
 _atom_site_label
 _atom_site_type_symbol
 _atom_site_symmetry_multiplicity
 _atom_site_Wyckoff_symbol
 _atom_site_fract_x
 _atom_site_fract_y
 _atom_site_fract_z
 _atom_site_occupancy
 Sb Sb 24 g 0 0.15315 0.3403 0.932
 Ir Ir 8 c 0.25 0.25 0.25 1


_exptl_crystal_colour                    ?
_exptl_crystal_density_meas              ?
_exptl_crystal_density_diffrn            9.35
_cell_measurement_temperature            ?
_cell_measurement_radiation              ?
_cell_measurement_reflns_used            ?
_diffrn_ambient_temperature              ?
_diffrn_measurement_device               'automatic diffractometer'
_diffrn_measurement_device_type
;
U.S.A. Illinois, Argonne National Laboratory, Advanced Photon Source, XSD-SRS, 11-BM-B beamline
;
_diffrn_radiation_type                   'X-rays, synchrotron'
_diffrn_radiation_wavelength             0.412731
_diffrn_reflns_number                    ?
_exptl_absorpt_coefficient_mu            ?
_exptl_absorpt_correction_type           ?
_computing_structure_solution            'starting values from the literature'
_refine_ls_number_parameters             ?
_refine_ls_number_reflns                 ?
_refine_ls_R_factor_gt                   ?
_refine_ls_wR_factor_gt                  ?
_pd_proc_ls_proof_R_factor               ?
_pd_proc_ls_proof_wR_factor              0.0731
_refine_ls_R_I_factor                    ?

# End of data set 1535458

