##############################################################################
#                                                                            #
# Ir-Si            # IrSi3 ht                                      #  250059 #
#                                                                            #
##############################################################################
#                                                                            #
#                           Pearson's Crystal Data                           #
#      Crystal Structure Database for Inorganic Compounds (on DVD)           #
#                              Release 2022/23                               #
#                  Editors: Pierre Villars and Karin Cenzual                 #
#                                                                            #
#   Copyright (c) ASM International & Material Phases Data System (MPDS),    #
# Switzerland & National Institute for Materials Science (NIMS), Japan, 2022 #
#                   All rights reserved. Version 2022.07                     #
#                                                                            #
#   This copy of Pearson's Crystal Data is licensed to:                      #
#   University of Alberta, Chemistry Department, 1-5 Installations License         #
#                                                                            #
##############################################################################

data_250059
_audit_creation_date                     2023-07-09
_audit_creation_method
;
Pearson's Crystal Data browser
;
#_database_code_PCD                      250059
_database_code_PDF                       ?

# Entry summary

_chemical_formula_structural             'Ir Si~3~'
_chemical_formula_sum                    'Ir Si3'
_chemical_name_mineral                   ?
_chemical_compound_source                ?
_chemical_name_structure_type            IrSi~3~,hP8,186
_chemical_formula_weight                 276.5

# Bibliographic data

_publ_section_title
;
Structures and compositions of the silicides of ruthenium, osmium, rhodium and iridium
;
_journal_coden_ASTM                      JCOMAH
_journal_name_full                       'J. Less-Common Met.'
_journal_year                            1962
_journal_volume                          4
_journal_page_first                      24
_journal_page_last                       34
_journal_language                        English
loop_
 _publ_author_name
 _publ_author_address
'Finnie L.N.'
;
University of California UC Berkeley
Department of Mineral Technology
Berkeley
U.S.A. California
;

# Standardized crystallographic data

_cell_length_a                           4.35
_cell_length_b                           4.35
_cell_length_c                           6.63
_cell_angle_alpha                        90
_cell_angle_beta                         90
_cell_angle_gamma                        120
_cell_volume                             108.65
_cell_formula_units_Z                    2
_space_group_IT_number                   186
_space_group_name_H-M_alt                'P 63 m c'
loop_
 _space_group_symop_id
 _space_group_symop_operation_xyz
 1 'x, y, z'
 2 '-x+y, -x, z'
 3 '-x+y, y, z'
 4 '-x, -x+y, 1/2+z'
 5 '-x, -y, 1/2+z'
 6 '-y, -x, z'
 7 '-y, x-y, z'
 8 'x, x-y, z'
 9 'x-y, -y, 1/2+z'
 10 'x-y, x, 1/2+z'
 11 'y, -x+y, 1/2+z'
 12 'y, x, 1/2+z'

# Atomic positions taken from type-defining entry

loop_
 _atom_type_symbol
 Si
 Ir
loop_
 _atom_site_label
 _atom_site_type_symbol
 _atom_site_symmetry_multiplicity
 _atom_site_Wyckoff_symbol
 _atom_site_fract_x
 _atom_site_fract_y
 _atom_site_fract_z
 _atom_site_occupancy
 Si1 Si 6 c 0.818 0.182 0.167 1
 Ir1 Ir 2 b 0.333333 0.666667 0.0 1


_exptl_crystal_colour                    ?
_exptl_crystal_density_meas              8.64
_exptl_crystal_density_diffrn            8.45
_cell_measurement_temperature            ?
_cell_measurement_radiation              'X-rays, Cu Ka'
_cell_measurement_wavelength             1.5418
_pd_proc_wavelength                      1.5418
_cell_measurement_reflns_used            ?
_diffrn_ambient_temperature              ?
_diffrn_measurement_device               ?
_diffrn_measurement_device_type          ?
_diffrn_radiation_type                   ?
_diffrn_reflns_number                    ?
_exptl_absorpt_coefficient_mu            ?
_exptl_absorpt_correction_type           ?
_computing_structure_solution            ?
_refine_ls_number_parameters             ?
_refine_ls_number_reflns                 ?
_refine_ls_R_factor_gt                   ?
_refine_ls_wR_factor_gt                  ?

# Published diffraction lines

loop_
 _refln_index_h
 _refln_index_k
 _refln_index_l
 _refln_d_spacing
 _refln_intensity_meas
 1 0 0 3.766 5
 1 0 1 3.277 7
 1 0 2 2.491 5
 1 1 0 2.177 6
 1 0 3 1.907 6
 2 0 0 1.883 3
 1 1 2 1.815 7
 0 0 4 1.657 3
 2 0 2 1.638 3
 1 0 4 1.517 4
 2 0 3 1.434 4
 2 1 1 1.395 5
 1 1 4 1.318 4
 2 1 2 1.309 3
 1 0 5 1.25 4
 2 1 3 1.197 5
 3 0 2 1.174 5
 0 0 6 1.104 3
 3 0 3 1.092 3
 2 0 5 1.085 4
 2 2 2 1.034 4
 3 0 4 1.002 4

# End of data set 250059

