##############################################################################
#                                                                            #
# In-Pt            # Pt3In2 rt                                     #  250937 #
#                                                                            #
##############################################################################
#                                                                            #
#                           Pearson's Crystal Data                           #
#      Crystal Structure Database for Inorganic Compounds (on DVD)           #
#                              Release 2022/23                               #
#                  Editors: Pierre Villars and Karin Cenzual                 #
#                                                                            #
#   Copyright (c) ASM International & Material Phases Data System (MPDS),    #
# Switzerland & National Institute for Materials Science (NIMS), Japan, 2022 #
#                   All rights reserved. Version 2022.07                     #
#                                                                            #
#   This copy of Pearson's Crystal Data is licensed to:                      #
#   University of Alberta, Chemistry Department, 1-5 Installations License         #
#                                                                            #
##############################################################################

data_250937
_audit_creation_date                     2023-07-09
_audit_creation_method
;
Pearson's Crystal Data browser
;
#_database_code_PCD                      250937
_database_code_PDF                       04-001-0515

# Entry summary

_chemical_formula_structural             'Pt~3~ In~2~'
_chemical_formula_sum                    'In2 Pt3'
_chemical_name_mineral                   ?
_chemical_compound_source                ?
_chemical_name_structure_type            Tl~2~Pt~3~,hP20,194
_chemical_formula_weight                 814.9

# Bibliographic data

_publ_section_title
'Uber die Mischungen Palladium-Thallium und Platin-Thallium'                  
_journal_coden_ASTM                      JCOMAH
_journal_name_full                       'J. Less-Common Met.'
_journal_year                            1968
_journal_volume                          16
_journal_page_first                      415
_journal_page_last                       425
_journal_language                        German
loop_
 _publ_author_name
 _publ_author_address
'Bhan S.'
;
Max Planck Society (MPG)
Max Planck Institut (MPI) fur Metallforschung
Stuttgart
Germany
;
'Godecke T.'
;
Max Planck Society (MPG)
Max Planck Institut (MPI) fur Metallforschung
Stuttgart
Germany
;
'Panday P.K.'
;
Max Planck Society (MPG)
Max Planck Institut (MPI) fur Metallforschung
Stuttgart
Germany
;
'Schubert K.'
;
Max Planck Society (MPG)
Max Planck Institut (MPI) fur Metallforschung
Stuttgart
Germany
;

# Standardized crystallographic data

_cell_length_a                           5.575
_cell_length_b                           5.575
_cell_length_c                           13.657
_cell_angle_alpha                        90
_cell_angle_beta                         90
_cell_angle_gamma                        120.
_cell_volume                             367.6
_cell_formula_units_Z                    4
_space_group_IT_number                   194
_space_group_name_H-M_alt                'P 63/m m c'
loop_
 _space_group_symop_id
 _space_group_symop_operation_xyz
 1 'x, y, z'
 2 '-x+y, -x, 1/2-z'
 3 '-x+y, -x, z'
 4 '-x+y, y, 1/2-z'
 5 '-x+y, y, z'
 6 '-x, -x+y, -z'
 7 '-x, -x+y, 1/2+z'
 8 '-x, -y, -z'
 9 '-x, -y, 1/2+z'
 10 '-y, -x, 1/2-z'
 11 '-y, -x, z'
 12 '-y, x-y, 1/2-z'
 13 '-y, x-y, z'
 14 'x, x-y, 1/2-z'
 15 'x, x-y, z'
 16 'x, y, 1/2-z'
 17 'x-y, -y, -z'
 18 'x-y, -y, 1/2+z'
 19 'x-y, x, -z'
 20 'x-y, x, 1/2+z'
 21 'y, -x+y, -z'
 22 'y, -x+y, 1/2+z'
 23 'y, x, -z'
 24 'y, x, 1/2+z'
loop_
 _atom_type_symbol
 Pt
 In
loop_
 _atom_site_label
 _atom_site_type_symbol
 _atom_site_symmetry_multiplicity
 _atom_site_Wyckoff_symbol
 _atom_site_fract_x
 _atom_site_fract_y
 _atom_site_fract_z
 _atom_site_occupancy
 Pt Pt 12 k 0.1667 0.3334 0.0875 1
 In3 In 4 f 0.333333 0.666667 0.5913 1
 In2 In 2 c 0.333333 0.666667 0.25 1
 In1 In 2 b 0 0 0.25 1


_exptl_crystal_colour                    ?
_exptl_crystal_density_meas              ?
_exptl_crystal_density_diffrn            14.73
_cell_measurement_temperature            ?
_cell_measurement_radiation              'X-rays, Cu Ka'
_cell_measurement_reflns_used            ?
_diffrn_ambient_temperature              ?
_diffrn_measurement_device               'Guinier film'
_diffrn_measurement_device_type          ?
_diffrn_radiation_type                   ?
_diffrn_reflns_number                    ?
_exptl_absorpt_coefficient_mu            ?
_exptl_absorpt_correction_type           ?
_computing_structure_solution            ?
_refine_ls_number_parameters             ?
_refine_ls_number_reflns                 ?
_refine_ls_R_factor_gt                   ?
_refine_ls_wR_factor_gt                  ?

# Published diffraction lines

loop_
 _refln_index_h
 _refln_index_k
 _refln_index_l
 _refln_d_spacing
 _refln_intensity_meas
 0 0 2 6.814 3.5
 0 1 0 4.818 2.5
 0 1 1 4.543 3.5
 0 0 4 3.417 3.5
 0 1 4 2.789 2
 1 1 2 2.581 3.5
 0 2 0 2.414 4.5
 0 1 5 2.377 5
 0 0 6 2.28 6
 1 1 4 2.162 2.5
 0 2 3 2.136 8
 0 2 4 1.973 3.5
 0 1 7 1.811 3
 1 1 6 1.765 0.5
 0 2 6 1.656 3.5
 0 3 2 1.567 2
 0 2 7 1.52 5
 1 1 8 1.458 2.5
 2 1 6 1.417 1
 0 2 8 1.396 5
 0 0 10 1.369 2
 2 1 7 1.334 2

# End of data set 250937

