##############################################################################
#                                                                            #
# Ga-Pt            # Pt2Ga rt                                      #  251008 #
#                                                                            #
##############################################################################
#                                                                            #
#                           Pearson's Crystal Data                           #
#      Crystal Structure Database for Inorganic Compounds (on DVD)           #
#                              Release 2022/23                               #
#                  Editors: Pierre Villars and Karin Cenzual                 #
#                                                                            #
#   Copyright (c) ASM International & Material Phases Data System (MPDS),    #
# Switzerland & National Institute for Materials Science (NIMS), Japan, 2022 #
#                   All rights reserved. Version 2022.07                     #
#                                                                            #
#   This copy of Pearson's Crystal Data is licensed to:                      #
#   University of Alberta, Chemistry Department, 1-5 Installations License         #
#                                                                            #
##############################################################################

data_251008
_audit_creation_date                     2023-07-09
_audit_creation_method
;
Pearson's Crystal Data browser
;
#_database_code_PCD                      251008
_database_code_PDF                       04-001-0557

# Entry summary

_chemical_formula_structural             'Pt~2~ Ga'
_chemical_formula_sum                    'Ga Pt2'
_chemical_name_mineral                   ?
_chemical_compound_source                ?
_chemical_name_structure_type            Pt~2~Ga,oP24,51
_chemical_formula_weight                 459.9

# Bibliographic data

_publ_section_title
;
Uber die Struktur von Phasen mit Kupfer Unterstruktur in einigen T-B Legierungen (T= Ni, Pd, Pt; B= Ga, In, Tl, Pb, Sb, Bi)
;
_journal_coden_ASTM                      JCOMAH
_journal_name_full                       'J. Less-Common Met.'
_journal_year                            1969
_journal_volume                          17
_journal_page_first                      73
_journal_page_last                       90
_journal_language                        German
loop_
 _publ_author_name
 _publ_author_address
'Bhan S.'
;
Max Planck Society (MPG)
Max Planck Institut (MPI) fur Metallforschung
Stuttgart
Germany
;
'Schubert K.'
;
Max Planck Society (MPG)
Max Planck Institut (MPI) fur Metallforschung
Stuttgart
Germany
;

# Standardized crystallographic data

_cell_length_a                           16.42
_cell_length_b                           3.919
_cell_length_c                           5.473
_cell_angle_alpha                        90
_cell_angle_beta                         90
_cell_angle_gamma                        90
_cell_volume                             352.19
_cell_formula_units_Z                    8
_space_group_IT_number                   51
_space_group_name_H-M_alt                'P m m a'
loop_
 _space_group_symop_id
 _space_group_symop_operation_xyz
 1 'x, y, z'
 2 '1/2-x, -y, z'
 3 '1/2-x, y, z'
 4 '-x, -y, -z'
 5 '-x, y, -z'
 6 '1/2+x, -y, -z'
 7 '1/2+x, y, -z'
 8 'x, -y, z'
loop_
 _atom_type_symbol
 Ga
 Pt
loop_
 _atom_site_label
 _atom_site_type_symbol
 _atom_site_symmetry_multiplicity
 _atom_site_Wyckoff_symbol
 _atom_site_fract_x
 _atom_site_fract_y
 _atom_site_fract_z
 _atom_site_occupancy
 Ga2 Ga 4 j 0.095 0.5 0.275 1
 Pt1 Pt 4 j 0.578 0.5 0.23 1
 Pt4 Pt 4 i 0.167 0 0.0 1
 Pt5 Pt 4 i 0.167 0 0.5 1
 Pt2 Pt 2 f 0.25 0.5 0.25 1
 Ga3 Ga 2 f 0.25 0.5 0.75 1
 Pt3 Pt 2 c 0 0 0.5 1
 Ga1 Ga 2 a 0 0 0 1


_exptl_crystal_colour                    ?
_exptl_crystal_density_meas              ?
_exptl_crystal_density_diffrn            17.35
_cell_measurement_temperature            ?
_cell_measurement_radiation              'X-rays, Cu Ka'
_cell_measurement_reflns_used            ?
_diffrn_ambient_temperature              ?
_diffrn_measurement_device               'Guinier film'
_diffrn_measurement_device_type          ?
_diffrn_radiation_type                   ?
_diffrn_reflns_number                    ?
_exptl_absorpt_coefficient_mu            ?
_exptl_absorpt_correction_type           ?
_computing_structure_solution            ?
_refine_ls_number_parameters             ?
_refine_ls_number_reflns                 ?
_refine_ls_R_factor_gt                   ?
_refine_ls_wR_factor_gt                  ?

# Published diffraction lines

loop_
 _refln_index_h
 _refln_index_k
 _refln_index_l
 _refln_d_spacing
 _refln_intensity_meas
 2 0 0 8.265 42
 0 0 1 5.521 85
 2 0 1 4.511 58
 0 1 0 4.103 108
 0 1 0 3.919 264
 3 0 1 3.869 466
 2 1 0 3.541 128
 4 0 1 3.287 220
 0 1 1 3.196 154
 1 1 1 3.129 46
 2 1 1 2.978 147
 4 1 0 2.836 269
 5 0 1 2.815 98
 3 1 1 2.757 466
 0 0 2 2.739 201
 1 0 2 2.71 160
 4 1 1 2.52 178
 6 0 1 2.453 202
 5 1 1 2.287 125
 0 1 2 2.248 237
 1 1 2 2.229 420
 7 0 1 2.158 187
 5 0 2 2.108 557
 6 1 1 2.081 170
 0 2 0 1.961 128
 6 0 2 1.939 1700
 7 1 1 1.891 153
 5 1 2 1.858 69
 0 2 1 1.847 79
 1 2 1 1.831 42
 0 0 3 1.821 102

# End of data set 251008

