##############################################################################
#                                                                            #
# Pd-Sb            # Pd2Sb rt                                      #  251182 #
#                                                                            #
##############################################################################
#                                                                            #
#                           Pearson's Crystal Data                           #
#      Crystal Structure Database for Inorganic Compounds (on DVD)           #
#                              Release 2022/23                               #
#                  Editors: Pierre Villars and Karin Cenzual                 #
#                                                                            #
#   Copyright (c) ASM International & Material Phases Data System (MPDS),    #
# Switzerland & National Institute for Materials Science (NIMS), Japan, 2022 #
#                   All rights reserved. Version 2022.07                     #
#                                                                            #
#   This copy of Pearson's Crystal Data is licensed to:                      #
#   University of Alberta, Chemistry Department, 1-5 Installations License         #
#                                                                            #
##############################################################################

data_251182
_audit_creation_date                     2023-07-09
_audit_creation_method
;
Pearson's Crystal Data browser
;
#_database_code_PCD                      251182
_database_code_PDF                       04-001-0607

# Entry summary

_chemical_formula_structural             'Pd~2~ Sb'
_chemical_formula_sum                    'Pd2 Sb'
_chemical_name_mineral                   naldrettite
_chemical_compound_source                ?
_chemical_name_structure_type            Pd~2~As,oS24,36
_chemical_formula_weight                 334.5

# Bibliographic data

_publ_section_title
'Kristallstruktur von Pd~2~As(r) und Pd~2~Sb'                                 
_journal_coden_ASTM                      JCOMAH
_journal_name_full                       'J. Less-Common Met.'
_journal_year                            1969
_journal_volume                          19
_journal_page_first                      300
_journal_page_last                       304
_journal_language                        German
loop_
 _publ_author_name
 _publ_author_address
'Balz U.'
;
Max Planck Society (MPG)
Max Planck Institut (MPI) fur Metallforschung
Stuttgart
Germany
;
'Schubert K.'
;
Max Planck Society (MPG)
Max Planck Institut (MPI) fur Metallforschung
Stuttgart
Germany
;

# Standardized crystallographic data

_cell_length_a                           3.354
_cell_length_b                           17.444
_cell_length_c                           6.909
_cell_angle_alpha                        90
_cell_angle_beta                         90
_cell_angle_gamma                        90
_cell_volume                             404.23
_cell_formula_units_Z                    8
_space_group_IT_number                   36
_space_group_name_H-M_alt                'C m c 21'
loop_
 _space_group_symop_id
 _space_group_symop_operation_xyz
 1 'x, y, z'
 2 '-x, -y, 1/2+z'
 3 '-x, y, z'
 4 'x, -y, 1/2+z'
 5 '1/2+x, 1/2+y, z'
 6 '1/2-x, 1/2-y, 1/2+z'
 7 '1/2-x, 1/2+y, z'
 8 '1/2+x, 1/2-y, 1/2+z'

# Atomic positions taken from type-defining entry

loop_
 _atom_type_symbol
 Sb
 Pd
loop_
 _atom_site_label
 _atom_site_type_symbol
 _atom_site_symmetry_multiplicity
 _atom_site_Wyckoff_symbol
 _atom_site_fract_x
 _atom_site_fract_y
 _atom_site_fract_z
 _atom_site_occupancy
 Sb1 Sb 4 a 0 0.0567 0.0000 1
 Pd1 Pd 4 a 0 0.0892 0.6469 1
 Pd2 Pd 4 a 0 0.1724 0.2696 1
 Sb2 Sb 4 a 0 0.2927 0.0372 1
 Pd3 Pd 4 a 0 0.3270 0.4186 1
 Pd4 Pd 4 a 0 0.5356 0.3116 1


_exptl_crystal_colour                    ?
_exptl_crystal_density_meas              ?
_exptl_crystal_density_diffrn            10.99
_cell_measurement_temperature            ?
_cell_measurement_radiation              'X-rays, Cu Ka'
_cell_measurement_reflns_used            ?
_diffrn_ambient_temperature              ?
_diffrn_measurement_device               'Guinier film'
_diffrn_measurement_device_type          ?
_diffrn_radiation_type                   ?
_diffrn_reflns_number                    ?
_exptl_absorpt_coefficient_mu            ?
_exptl_absorpt_correction_type           ?
_computing_structure_solution            ?
_refine_ls_number_parameters             ?
_refine_ls_number_reflns                 ?
_refine_ls_R_factor_gt                   ?
_refine_ls_wR_factor_gt                  ?

# Published diffraction lines

loop_
 _refln_index_h
 _refln_index_k
 _refln_index_l
 _refln_d_spacing
 _refln_intensity_meas
 0 4 1 3.692 2
 0 0 2 3.458 2
 1 1 0 3.302 2
 0 2 2 3.215 3
 1 1 1 2.981 3.5
 0 6 0 2.91 1
 0 4 2 2.71 1
 0 6 1 2.681 7
 1 5 0 2.42 6
 1 1 2 2.387 6
 1 5 1 2.283 8
 0 2 3 2.226 8
 0 8 0 2.18 3.5
 0 8 1 2.08 3.5
 0 4 3 2.037 6
 1 7 0 2.005 1
 1 5 2 1.982 3.5
 1 7 1 1.923 3
 1 1 3 1.889 3.5
 0 8 2 1.844 2
 0 6 3 1.807 3
 0 0 4 1.729 1
 0 10 1 1.692 2
 1 9 0 1.68 6
 1 5 3 1.67 1
 1 9 1 1.633 1
 0 4 4 1.607 2
 0 8 3 1.586 2
 0 10 2 1.559 2
 1 1 4 1.533 3
 1 7 3 1.512 3
 0 6 4 1.487 2
 0 12 1 1.423 2
 1 5 4 1.405 2
 0 10 3 1.39 2
 0 2 5 1.367 1
 1 9 3 1.356 3.5
 0 12 2 1.34 6
 2 8 0 1.33 3
 1 11 2 1.324 3
 0 4 5 1.318 2
 1 7 4 1.316 3.5
 2 4 3 1.296 3.5
 1 1 5 1.275 3.5
 0 6 5 1.249 2
 0 14 0 1.247 1
 2 6 3 1.23 2
 0 14 1 1.226 3.5
 1 11 3 1.218 1
 1 9 4 1.204 3.5

# End of data set 251182

