##############################################################################
#                                                                            #
# In-Pt            # Pt13In9                                       #  251180 #
#                                                                            #
##############################################################################
#                                                                            #
#                           Pearson's Crystal Data                           #
#      Crystal Structure Database for Inorganic Compounds (on DVD)           #
#                              Release 2022/23                               #
#                  Editors: Pierre Villars and Karin Cenzual                 #
#                                                                            #
#   Copyright (c) ASM International & Material Phases Data System (MPDS),    #
# Switzerland & National Institute for Materials Science (NIMS), Japan, 2022 #
#                   All rights reserved. Version 2022.07                     #
#                                                                            #
#   This copy of Pearson's Crystal Data is licensed to:                      #
#   University of Alberta, Chemistry Department, 1-5 Installations License         #
#                                                                            #
##############################################################################

data_251180
_audit_creation_date                     2023-07-09
_audit_creation_method
;
Pearson's Crystal Data browser
;
#_database_code_PCD                      251180
_database_code_PDF                       04-001-0606

# Entry summary

_chemical_formula_structural             'Pt~13~ In~9~'
_chemical_formula_sum                    'In9 Pt13'
_chemical_name_mineral                   ?
_chemical_compound_source                ?
_chemical_name_structure_type            Ni~13~Ga~9~,mS44,12
_chemical_formula_weight                 3569.6

# Bibliographic data

_publ_section_title
'Kristallstruktur von Ni~13~Ga~9~ und zwei Isotypen'                          
_journal_coden_ASTM                      JCOMAH
_journal_name_full                       'J. Less-Common Met.'
_journal_year                            1969
_journal_volume                          19
_journal_page_first                      245
_journal_page_last                       252
_journal_language                        German
loop_
 _publ_author_name
 _publ_author_address
'Ellner M.'
;
Max Planck Society (MPG)
Max Planck Institut (MPI) fur Metallforschung
Stuttgart
Germany
;
'Bhan S.'
;
Max Planck Society (MPG)
Max Planck Institut (MPI) fur Metallforschung
Stuttgart
Germany
;
'Schubert K.'
;
Max Planck Society (MPG)
Max Planck Institut (MPI) fur Metallforschung
Stuttgart
Germany
;

# Standardized crystallographic data

_cell_length_a                           11.1117
_cell_length_b                           8.792
_cell_length_c                           9.4448
_cell_angle_alpha                        90
_cell_angle_beta                         125.68
_cell_angle_gamma                        90
_cell_volume                             749.5
_cell_formula_units_Z                    2
_space_group_IT_number                   12
_space_group_name_H-M_alt                'C 1 2/m 1'
loop_
 _space_group_symop_id
 _space_group_symop_operation_xyz
 1 'x, y, z'
 2 '-x, -y, -z'
 3 '-x, y, -z'
 4 'x, -y, z'
 5 '1/2+x, 1/2+y, z'
 6 '1/2-x, 1/2-y, -z'
 7 '1/2-x, 1/2+y, -z'
 8 '1/2+x, 1/2-y, z'

# Atomic positions taken from type-defining entry

loop_
 _atom_type_symbol
 Pt
 In
loop_
 _atom_site_label
 _atom_site_type_symbol
 _atom_site_symmetry_multiplicity
 _atom_site_Wyckoff_symbol
 _atom_site_fract_x
 _atom_site_fract_y
 _atom_site_fract_z
 _atom_site_occupancy
 Pt1 Pt 8 j 0.193 0.251 0.155 1
 In1 In 8 j 0.457 0.273 0.182 1
 In2 In 4 i 0.172 0 0.604 1
 Pt2 Pt 4 i 0.248 0 0.006 1
 In3 In 4 i 0.299 0 0.336 1
 Pt3 Pt 4 i 0.555 0 0.335 1
 Pt4 Pt 4 h 0 0.248 0.5 1
 Pt5 Pt 4 f 0.25 0.25 0.5 1
 In4 In 2 b 0 0.5 0 1
 Pt6 Pt 2 a 0 0 0 1


_exptl_crystal_colour                    ?
_exptl_crystal_density_meas              ?
_exptl_crystal_density_diffrn            15.82
_cell_measurement_temperature            ?
_cell_measurement_radiation              'X-rays, Cu Ka'
_cell_measurement_reflns_used            ?
_diffrn_ambient_temperature              ?
_diffrn_measurement_device               'Guinier film'
_diffrn_measurement_device_type          ?
_diffrn_radiation_type                   ?
_diffrn_reflns_number                    ?
_exptl_absorpt_coefficient_mu            ?
_exptl_absorpt_correction_type           ?
_computing_structure_solution            ?
_refine_ls_number_parameters             ?
_refine_ls_number_reflns                 ?
_refine_ls_R_factor_gt                   ?
_refine_ls_wR_factor_gt                  ?

# Published diffraction lines

loop_
 _refln_index_h
 _refln_index_k
 _refln_index_l
 _refln_d_spacing
 _refln_intensity_meas
 1 1 1 6.295 4.5
 2 0 2 4.511 3
 0 2 0 4.4 3.5
 3 1 2 4.103 5.5
 4 0 2 3.835 5
 2 2 1 3.817 5
 1 1 2 3.33 3
 2 2 2 3.147 1
 4 2 2 2.891 1
 5 1 3 2.8 4.5
 1 3 1 2.784 5.5
 4 2 3 2.568 3.5
 4 2 1 2.561 5
 3 3 2 2.482 5
 6 0 4 2.328 2
 6 0 2 2.316 2
 5 1 1 2.279 3.5
 1 3 2 2.273 3
 4 0 4 2.258 5.5
 2 2 3 2.25 7.5
 4 0 0 2.244 8
 6 2 3 2.211 8
 0 4 0 2.196 7
 3 3 0 2.099 2
 7 1 3 2.086 1
 2 4 0 1.973 2
 8 0 4 1.918 1.5
 4 4 2 1.909 3
 5 3 4 1.84 2
 5 1 5 1.774 2
 5 1 0 1.759 3
 0 4 2 1.725 1
 2 2 4 1.669 1.5
 9 1 5 1.656 1.5
 3 5 1 1.644 1
 6 4 2 1.596 1
 8 0 6 1.584 4.5
 4 4 4 1.574 5
 4 4 0 1.571 5
 -4 2 1 1.557 1
 5 5 3 1.513 1
 10 2 5 1.449 2
 5 5 1 1.41 2
 0 0 4 1.391 5

# End of data set 251180

