##############################################################################
#                                                                            #
# Ir-Sn            # IrSn4 hp-ht                                   #  260292 #
#                                                                            #
##############################################################################
#                                                                            #
#                           Pearson's Crystal Data                           #
#      Crystal Structure Database for Inorganic Compounds (on DVD)           #
#                              Release 2022/23                               #
#                  Editors: Pierre Villars and Karin Cenzual                 #
#                                                                            #
#   Copyright (c) ASM International & Material Phases Data System (MPDS),    #
# Switzerland & National Institute for Materials Science (NIMS), Japan, 2022 #
#                   All rights reserved. Version 2022.07                     #
#                                                                            #
#   This copy of Pearson's Crystal Data is licensed to:                      #
#   University of Alberta, Chemistry Department, 1-5 Installations License         #
#                                                                            #
##############################################################################

data_260292
_audit_creation_date                     2023-07-09
_audit_creation_method
;
Pearson's Crystal Data browser
;
#_database_code_PCD                      260292
_database_code_PDF                       04-001-1929

# Entry summary

_chemical_formula_structural             'Ir Sn~4~'
_chemical_formula_sum                    'Ir Sn4'
_chemical_name_mineral                   ?
_chemical_compound_source                ?
_chemical_name_structure_type            AuSn~4~,oS20,41
_chemical_formula_weight                 667.0

# Bibliographic data

_publ_section_title
'The new phases IrSn~4~ and RhGe~4~ formed by high pressure treatment'        
_journal_coden_ASTM                      JCOMAH
_journal_name_full                       'J. Less-Common Met.'
_journal_year                            1984
_journal_volume                          98
_journal_page_first                      L1
_journal_page_last                       L3
_journal_language                        English
loop_
 _publ_author_name
 _publ_author_address
'Larchev V.I.'
;
Russian Academy of Sciences (RAS)
Vereshchagin V.V. Institute of High Pressure Physics
Moscow-Troitsk
Russia
;
'Popova S.V.'
;
Russian Academy of Sciences (RAS)
Vereshchagin V.V. Institute of High Pressure Physics
Moscow-Troitsk
Russia
;

# Standardized crystallographic data

_cell_length_a                           6.274
_cell_length_b                           6.337
_cell_length_c                           11.352
_cell_angle_alpha                        90
_cell_angle_beta                         90
_cell_angle_gamma                        90
_cell_volume                             451.34
_cell_formula_units_Z                    4
_space_group_IT_number                   41
_space_group_name_H-M_alt                'A e a 2'
loop_
 _space_group_symop_id
 _space_group_symop_operation_xyz
 1 'x, y, z'
 2 '1/2-x, y, 1/2+z'
 3 '-x, -y, z'
 4 '1/2+x, -y, 1/2+z'
 5 'x, 1/2+y, 1/2+z'
 6 '1/2-x, 1/2+y, 1+z'
 7 '-x, 1/2-y, 1/2+z'
 8 '1/2+x, 1/2-y, 1+z'

# Atomic positions taken from type-defining entry

loop_
 _atom_type_symbol
 Sn
 Ir
loop_
 _atom_site_label
 _atom_site_type_symbol
 _atom_site_symmetry_multiplicity
 _atom_site_Wyckoff_symbol
 _atom_site_fract_x
 _atom_site_fract_y
 _atom_site_fract_z
 _atom_site_occupancy
 Sn1 Sn 8 b 0.1639 0.3395 0.1205 1
 Sn2 Sn 8 b 0.1688 0.1642 0.3591 1
 Ir1 Ir 4 a 0 0 0.0 1


_exptl_crystal_colour                    ?
_exptl_crystal_density_meas              5.4(1)
_exptl_crystal_density_diffrn            9.82
_cell_measurement_temperature            ?
_cell_measurement_radiation              'X-rays, Cu Ka'
_cell_measurement_reflns_used            ?
_diffrn_ambient_temperature              ?
_diffrn_measurement_device               diffractometer
_diffrn_measurement_device_type          ?
_diffrn_radiation_type                   ?
_diffrn_reflns_number                    ?
_exptl_absorpt_coefficient_mu            ?
_exptl_absorpt_correction_type           ?
_computing_structure_solution            ?
_refine_ls_number_parameters             ?
_refine_ls_number_reflns                 ?
_refine_ls_R_factor_gt                   ?
_refine_ls_wR_factor_gt                  ?

# Published diffraction lines

loop_
 _refln_index_h
 _refln_index_k
 _refln_index_l
 _refln_d_spacing
 _refln_intensity_meas
 0 0 2 5.68 50
 1 1 1 4.15 8
 1 1 3 2.888 40
 0 0 4 2.839 85
 2 0 2 2.752 20
 2 1 3 2.255 15
 2 2 0 2.232 15
 0 2 4 2.114 100
 2 2 2 2.077 15
 1 1 5 2.018 40
 1 3 1 1.968 40
 0 0 6 1.891 25
 3 2 2 1.67 20
 0 2 6 1.622 15
 0 4 2 1.527 6
 4 1 1 1.508 6
 1 3 5 1.505 15
 1 4 2 1.486 20
 2 2 6 1.444 10
 0 0 8 1.413 70
 3 3 3 1.384 18
 0 2 8 1.295 7

# End of data set 260292

