##############################################################################
#                                                                            #
# Ge-Ir            # IrGe                                          #  261215 #
#                                                                            #
##############################################################################
#                                                                            #
#                           Pearson's Crystal Data                           #
#      Crystal Structure Database for Inorganic Compounds (on DVD)           #
#                              Release 2022/23                               #
#                  Editors: Pierre Villars and Karin Cenzual                 #
#                                                                            #
#   Copyright (c) ASM International & Material Phases Data System (MPDS),    #
# Switzerland & National Institute for Materials Science (NIMS), Japan, 2022 #
#                   All rights reserved. Version 2022.07                     #
#                                                                            #
#   This copy of Pearson's Crystal Data is licensed to:                      #
#   University of Alberta, Chemistry Department, 1-5 Installations License         #
#                                                                            #
##############################################################################

data_261215
_audit_creation_date                     2023-07-09
_audit_creation_method
;
Pearson's Crystal Data browser
;
#_database_code_PCD                      261215
_database_code_PDF                       04-001-2780

# Entry summary

_chemical_formula_structural             'Ir Ge'
_chemical_formula_sum                    'Ge Ir'
_chemical_name_mineral                   ?
_chemical_compound_source                ?
_chemical_name_structure_type            FeAs,oP8,62
_chemical_formula_weight                 264.8

# Bibliographic data

_publ_section_title                      'Neue Phasen vom MnP (B31)-Typ'
_journal_coden_ASTM                      ZEMTAE
_journal_name_full                       'Z. Metallkd.'
_journal_year                            1950
_journal_volume                          41
_journal_page_first                      358
_journal_page_last                       367
_journal_language                        German
loop_
 _publ_author_name
 _publ_author_address
'Pfisterer H.'
;
Max Planck Society (MPG)
Max Planck Institut (MPI) fur Metallforschung
Stuttgart
Germany
;
'Schubert K.'
;
Max Planck Society (MPG)
Max Planck Institut (MPI) fur Metallforschung
Stuttgart
Germany
;

# Standardized crystallographic data

_cell_length_a                           5.611
_cell_length_b                           3.49
_cell_length_c                           6.281
_cell_angle_alpha                        90
_cell_angle_beta                         90
_cell_angle_gamma                        90
_cell_volume                             123
_cell_formula_units_Z                    4
_space_group_IT_number                   62
_space_group_name_H-M_alt                'P n m a'
loop_
 _space_group_symop_id
 _space_group_symop_operation_xyz
 1 'x, y, z'
 2 '1/2-x, -y, 1/2+z'
 3 '1/2-x, 1/2+y, 1/2+z'
 4 '-x, -y, -z'
 5 '-x, 1/2+y, -z'
 6 '1/2+x, 1/2-y, 1/2-z'
 7 '1/2+x, y, 1/2-z'
 8 'x, 1/2-y, z'
loop_
 _atom_type_symbol
 Ir
 Ge
loop_
 _atom_site_label
 _atom_site_type_symbol
 _atom_site_symmetry_multiplicity
 _atom_site_Wyckoff_symbol
 _atom_site_fract_x
 _atom_site_fract_y
 _atom_site_fract_z
 _atom_site_occupancy
 Ir Ir 4 c 0.01 0.25 0.192 1
 Ge Ge 4 c 0.185 0.25 0.59 1


_exptl_crystal_colour                    ?
_exptl_crystal_density_meas              ?
_exptl_crystal_density_diffrn            14.30
_cell_measurement_temperature            ?
_cell_measurement_radiation              'X-rays, Cu Ka'
_cell_measurement_reflns_used            ?
_diffrn_ambient_temperature              ?
_diffrn_measurement_device               'Debye-Scherrer film'
_diffrn_measurement_device_type          ?
_diffrn_radiation_type                   ?
_diffrn_reflns_number                    ?
_exptl_absorpt_coefficient_mu            ?
_exptl_absorpt_correction_type           ?
_computing_structure_solution            ?
_refine_ls_number_parameters             ?
_refine_ls_number_reflns                 ?
_refine_ls_R_factor_gt                   ?
_refine_ls_wR_factor_gt                  ?

# Published diffraction lines

loop_
 _refln_index_h
 _refln_index_k
 _refln_index_l
 _refln_d_spacing
 _refln_intensity_meas
 1 1 0 4.206 2
 2 0 0 3.145 3
 1 0 1 3.038 6
 0 2 0 2.806 4.7
 2 1 0 2.715 2
 1 1 1 2.682 3
 2 1 1 2.153 5.3
 2 2 0 2.103 4.7
 1 2 1 2.067 7
 3 1 0 1.963 3.3
 2 2 1 1.797 5
 0 0 2 1.746 4.7
 3 2 0 1.682 1
 2 0 2 1.519 3
 0 2 2 1.484 3
 2 3 1 1.457 2
 0 4 0 1.404 2
 3 3 0 1.393 4.7
 4 2 0 1.372 2
 2 2 2 1.341 4.7
 3 1 2 1.305 4
 2 4 0 1.284 2
 1 4 1 1.278 4
 1 3 2 1.252 3
 5 1 0 1.228 3.3
 2 4 1 1.204 1
 5 1 1 1.157 1
 4 1 2 1.141 5.3
 3 4 1 1.108 3
 0 4 2 1.094 4.7
 4 2 2 1.079 2

# End of data set 261215

