##############################################################################
#                                                                            #
# Ge-Pt            # PtGe                                          #  261214 #
#                                                                            #
##############################################################################
#                                                                            #
#                           Pearson's Crystal Data                           #
#      Crystal Structure Database for Inorganic Compounds (on DVD)           #
#                              Release 2022/23                               #
#                  Editors: Pierre Villars and Karin Cenzual                 #
#                                                                            #
#   Copyright (c) ASM International & Material Phases Data System (MPDS),    #
# Switzerland & National Institute for Materials Science (NIMS), Japan, 2022 #
#                   All rights reserved. Version 2022.07                     #
#                                                                            #
#   This copy of Pearson's Crystal Data is licensed to:                      #
#   University of Alberta, Chemistry Department, 1-5 Installations License         #
#                                                                            #
##############################################################################

data_261214
_audit_creation_date                     2023-07-09
_audit_creation_method
;
Pearson's Crystal Data browser
;
#_database_code_PCD                      261214
_database_code_PDF                       04-001-2779

# Entry summary

_chemical_formula_structural             'Pt Ge'
_chemical_formula_sum                    'Ge Pt'
_chemical_name_mineral                   ?
_chemical_compound_source                ?
_chemical_name_structure_type            FeAs,oP8,62
_chemical_formula_weight                 267.7

# Bibliographic data

_publ_section_title                      'Neue Phasen vom MnP (B31)-Typ'
_journal_coden_ASTM                      ZEMTAE
_journal_name_full                       'Z. Metallkd.'
_journal_year                            1950
_journal_volume                          41
_journal_page_first                      358
_journal_page_last                       367
_journal_language                        German
loop_
 _publ_author_name
 _publ_author_address
'Pfisterer H.'
;
Max Planck Society (MPG)
Max Planck Institut (MPI) fur Metallforschung
Stuttgart
Germany
;
'Schubert K.'
;
Max Planck Society (MPG)
Max Planck Institut (MPI) fur Metallforschung
Stuttgart
Germany
;

# Standardized crystallographic data

_cell_length_a                           5.733
_cell_length_b                           3.701
_cell_length_c                           6.088
_cell_angle_alpha                        90
_cell_angle_beta                         90
_cell_angle_gamma                        90
_cell_volume                             129.17
_cell_formula_units_Z                    4
_space_group_IT_number                   62
_space_group_name_H-M_alt                'P n m a'
loop_
 _space_group_symop_id
 _space_group_symop_operation_xyz
 1 'x, y, z'
 2 '1/2-x, -y, 1/2+z'
 3 '1/2-x, 1/2+y, 1/2+z'
 4 '-x, -y, -z'
 5 '-x, 1/2+y, -z'
 6 '1/2+x, 1/2-y, 1/2-z'
 7 '1/2+x, y, 1/2-z'
 8 'x, 1/2-y, z'
loop_
 _atom_type_symbol
 Pt
 Ge
loop_
 _atom_site_label
 _atom_site_type_symbol
 _atom_site_symmetry_multiplicity
 _atom_site_Wyckoff_symbol
 _atom_site_fract_x
 _atom_site_fract_y
 _atom_site_fract_z
 _atom_site_occupancy
 Pt Pt 4 c 0.01 0.25 0.195 1
 Ge Ge 4 c 0.195 0.25 0.59 1


_exptl_crystal_colour                    ?
_exptl_crystal_density_meas              ?
_exptl_crystal_density_diffrn            13.76
_cell_measurement_temperature            ?
_cell_measurement_radiation              'X-rays, Cu Ka'
_cell_measurement_reflns_used            ?
_diffrn_ambient_temperature              ?
_diffrn_measurement_device               'Debye-Scherrer film'
_diffrn_measurement_device_type          ?
_diffrn_radiation_type                   ?
_diffrn_reflns_number                    ?
_exptl_absorpt_coefficient_mu            ?
_exptl_absorpt_correction_type           ?
_computing_structure_solution            ?
_refine_ls_number_parameters             ?
_refine_ls_number_reflns                 ?
_refine_ls_R_factor_gt                   ?
_refine_ls_wR_factor_gt                  ?

# Published diffraction lines

loop_
 _refln_index_h
 _refln_index_k
 _refln_index_l
 _refln_d_spacing
 _refln_intensity_meas
 1 1 0 4.193 3
 1 0 1 3.166 6
 2 0 0 3.05 3.3
 0 2 0 2.873 4.7
 1 1 1 2.778 4
 2 1 0 2.695 3
 0 2 1 2.265 2
 2 1 1 2.18 6
 1 2 1 2.123 8
 2 2 0 2.085 5
 3 1 0 1.917 4.7
 0 0 2 1.852 5
 1 3 0 1.824 3
 3 0 1 1.784 4
 2 0 2 1.582 3
 0 2 2 1.555 3.3
 2 1 2 1.527 1
 2 3 1 1.484 1
 0 4 0 1.435 3
 3 3 0 1.393 4
 2 2 2 1.386 5
 4 1 1 1.368 5
 3 1 2 1.331 4.7
 1 4 1 1.308 5
 1 3 2 1.299 4
 3 2 2 1.224 1
 1 0 3 1.208 2
 5 1 0 1.192 3.3
 5 0 1 1.157 1
 5 1 1 1.135 6
 5 2 0 1.122 3
 3 4 1 1.115 5.3
 2 4 2 1.062 4
 3 0 3 1.054 3
 2 5 1 1.032 5
 5 3 0 1.028 2
 5 1 2 1.002 5.3
 3 5 0 0.999 2
 2 3 3 0.982 1
 6 1 1 0.965 4
 1 5 2 0.964 1
 6 2 0 0.957 4
 4 1 3 0.946 4
 0 6 1 0.926 5
 1 6 1 0.915 3
 2 6 0 0.912 2
 5 3 2 0.899 2.7
 4 5 1 0.89 2.7
 0 2 4 0.881 2
 3 5 2 0.88 3.3
 6 3 1 0.872 3
 5 1 3 0.857 5
 6 2 2 0.85 3
 3 4 3 0.85 4.7
 2 2 4 0.846 2
 3 6 1 0.842 2
 5 5 0 0.836 4
 3 1 4 0.833 4
 1 3 4 0.826 2
 2 6 2 0.818 3
 7 2 1 0.813 3
 2 5 3 0.81 5
 1 7 1 0.793 2
 7 3 0 0.793 4
 7 1 2 0.78 3
 0 4 4 0.778 5

# End of data set 261214

