##############################################################################
#                                                                            #
# Ge-Pd            # Pd25Ge9 ht                                    #  261682 #
#                                                                            #
##############################################################################
#                                                                            #
#                           Pearson's Crystal Data                           #
#      Crystal Structure Database for Inorganic Compounds (on DVD)           #
#                              Release 2022/23                               #
#                  Editors: Pierre Villars and Karin Cenzual                 #
#                                                                            #
#   Copyright (c) ASM International & Material Phases Data System (MPDS),    #
# Switzerland & National Institute for Materials Science (NIMS), Japan, 2022 #
#                   All rights reserved. Version 2022.07                     #
#                                                                            #
#   This copy of Pearson's Crystal Data is licensed to:                      #
#   University of Alberta, Chemistry Department, 1-5 Installations License         #
#                                                                            #
##############################################################################

data_261682
_audit_creation_date                     2023-07-09
_audit_creation_method
;
Pearson's Crystal Data browser
;
#_database_code_PCD                      261682
_database_code_PDF                       04-001-3219

# Entry summary

_chemical_formula_structural             'Pd~25.5~ Ge~8.5~'
_chemical_formula_sum                    'Ge8.5 Pd25.5'
_chemical_name_mineral                   ?
_chemical_compound_source                ?
_chemical_name_structure_type            Pd~25~Ge~9~,hP34,147
_chemical_formula_weight                 3330.2

# Bibliographic data

_publ_section_title
'Zur Konstitution der Palladium-Germanium-Legierungen'                        
_journal_coden_ASTM                      ZEMTAE
_journal_name_full                       'Z. Metallkd.'
_journal_year                            1974
_journal_volume                          65
_journal_page_first                      379
_journal_page_last                       382
_journal_language                        German
loop_
 _publ_author_name
 _publ_author_address
'Khalaff K.'
;
Max Planck Society (MPG)
Max Planck Institut (MPI) fur Metallforschung
Stuttgart
Germany
;
'Schubert K.'
;
Max Planck Society (MPG)
Max Planck Institut (MPI) fur Metallforschung
Stuttgart
Germany
;

# Standardized crystallographic data

_cell_length_a                           7.355
_cell_length_b                           7.355
_cell_length_c                           10.592
_cell_angle_alpha                        90
_cell_angle_beta                         90
_cell_angle_gamma                        120
_cell_volume                             496.22
_cell_formula_units_Z                    1
_space_group_IT_number                   147
_space_group_name_H-M_alt                'P -3'
loop_
 _space_group_symop_id
 _space_group_symop_operation_xyz
 1 'x, y, z'
 2 '-x+y, -x, z'
 3 '-x, -y, -z'
 4 '-y, x-y, z'
 5 'x-y, x, -z'
 6 'y, -x+y, -z'

# Atomic positions taken from type-defining entry

loop_
 _atom_type_symbol
 Ge
 Pd
loop_
 _atom_site_label
 _atom_site_type_symbol
 _atom_site_symmetry_multiplicity
 _atom_site_Wyckoff_symbol
 _atom_site_fract_x
 _atom_site_fract_y
 _atom_site_fract_z
 _atom_site_occupancy
 Ge1 Ge 6 g 0.007 0.340 0.320 1
 Pd1 Pd 6 g 0.326 0.415 0.188 1
 Pd2 Pd 6 g 0.347 0.067 0.078 1
 Pd3 Pd 6 g 0.380 0.308 0.432 1
 Ge2 Ge 2 d 0.333333 0.666667 0.027 1
 Pd4 Pd 2 d 0.333333 0.666667 0.392 1
 Pd5 Pd 2 d 0.333333 0.666667 0.758 1
 Pd6 Pd 2 c 0 0 0.251 1
 Pd7 Pd 1 b 0 0 0.5 1
 Ge3 Ge 1 a 0 0 0 1


_exptl_crystal_colour                    ?
_exptl_crystal_density_meas              ?
_exptl_crystal_density_diffrn            11.14
_cell_measurement_temperature            ?
_cell_measurement_radiation              X-rays
_cell_measurement_reflns_used            ?
_diffrn_ambient_temperature              ?
_diffrn_measurement_device               'Guinier film'
_diffrn_measurement_device_type          ?
_diffrn_radiation_type                   ?
_diffrn_reflns_number                    ?
_exptl_absorpt_coefficient_mu            ?
_exptl_absorpt_correction_type           ?
_computing_structure_solution            ?
_refine_ls_number_parameters             ?
_refine_ls_number_reflns                 ?
_refine_ls_R_factor_gt                   ?
_refine_ls_wR_factor_gt                  ?

# End of data set 261682

