##############################################################################
#                                                                            #
# Ge-Pd            # Pd21Ge8                                       #  261681 #
#                                                                            #
##############################################################################
#                                                                            #
#                           Pearson's Crystal Data                           #
#      Crystal Structure Database for Inorganic Compounds (on DVD)           #
#                              Release 2022/23                               #
#                  Editors: Pierre Villars and Karin Cenzual                 #
#                                                                            #
#   Copyright (c) ASM International & Material Phases Data System (MPDS),    #
# Switzerland & National Institute for Materials Science (NIMS), Japan, 2022 #
#                   All rights reserved. Version 2022.07                     #
#                                                                            #
#   This copy of Pearson's Crystal Data is licensed to:                      #
#   University of Alberta, Chemistry Department, 1-5 Installations License         #
#                                                                            #
##############################################################################

data_261681
_audit_creation_date                     2023-07-09
_audit_creation_method
;
Pearson's Crystal Data browser
;
#_database_code_PCD                      261681
_database_code_PDF                       ?

# Entry summary

_chemical_formula_structural             'Pd~20.71~ Ge~8.29~'
_chemical_formula_sum                    'Ge8.29 Pd20.71'
_chemical_name_mineral                   ?
_chemical_compound_source                ?
_chemical_name_structure_type            Pt~8~Al~21~,tI116,88
_chemical_formula_weight                 2805.3

# Bibliographic data

_publ_section_title
'Zur Konstitution der Palladium-Germanium-Legierungen'                        
_journal_coden_ASTM                      ZEMTAE
_journal_name_full                       'Z. Metallkd.'
_journal_year                            1974
_journal_volume                          65
_journal_page_first                      379
_journal_page_last                       382
_journal_language                        German
loop_
 _publ_author_name
 _publ_author_address
'Khalaff K.'
;
Max Planck Society (MPG)
Max Planck Institut (MPI) fur Metallforschung
Stuttgart
Germany
;
'Schubert K.'
;
Max Planck Society (MPG)
Max Planck Institut (MPI) fur Metallforschung
Stuttgart
Germany
;

# Standardized crystallographic data

_cell_length_a                           13.053
_cell_length_b                           13.053
_cell_length_c                           10.02
_cell_angle_alpha                        90
_cell_angle_beta                         90
_cell_angle_gamma                        90
_cell_volume                             1707.2
_cell_formula_units_Z                    4
_space_group_IT_number                   88
_space_group_name_H-M_alt                'I 41/a (origin choice 2)'
loop_
 _space_group_symop_id
 _space_group_symop_operation_xyz
 1 'x, y, z'
 2 '-x, 1/2-y, z'
 3 '-x, -y, -z'
 4 '-1/4-y, 1/4+x, 1/4+z'
 5 '-1/4-y, -1/4+x, -1/4-z'
 6 'x, 1/2+y, -z'
 7 '1/4+y, 1/4-x, 1/4+z'
 8 '1/4+y, -1/4-x, -1/4-z'
 9 '1/2+x, 1/2+y, 1/2+z'
 10 '1/2-x, 1-y, 1/2+z'
 11 '1/2-x, 1/2-y, 1/2-z'
 12 '1/4-y, 3/4+x, 3/4+z'
 13 '1/4-y, 1/4+x, 1/4-z'
 14 '1/2+x, 1+y, 1/2-z'
 15 '3/4+y, 3/4-x, 3/4+z'
 16 '3/4+y, 1/4-x, 1/4-z'

# Atomic positions taken from type-defining entry

loop_
 _atom_type_symbol
 Pd
 Ge
loop_
 _atom_site_label
 _atom_site_type_symbol
 _atom_site_symmetry_multiplicity
 _atom_site_Wyckoff_symbol
 _atom_site_fract_x
 _atom_site_fract_y
 _atom_site_fract_z
 _atom_site_occupancy
 Pd1A Pd 16 f 0.0094 0.0315 0.1456 0.990
 Ge1B Ge 16 f 0.0094 0.0315 0.1456 0.010
 Pd2A Pd 16 f 0.0888 0.1976 0.5253 0.990
 Ge2B Ge 16 f 0.0888 0.1976 0.5253 0.010
 Pd3A Pd 16 f 0.0892 0.0015 0.4265 0.990
 Ge3B Ge 16 f 0.0892 0.0015 0.4265 0.010
 Ge1 Ge 16 f 0.0981 0.5350 0.3329 1
 Ge2 Ge 16 f 0.1303 0.1569 0.2796 1
 Pd4A Pd 16 f 0.2190 0.0394 0.0999 0.990
 Ge4B Ge 16 f 0.2190 0.0394 0.0999 0.010
 Pd5A Pd 16 f 0.4289 0.1571 0.1473 0.990
 Ge5B Ge 16 f 0.4289 0.1571 0.1473 0.010
 Pd6A Pd 4 a 0 0.25 0.125 0.990
 Ge6B Ge 4 a 0 0.25 0.125 0.010


_exptl_crystal_colour                    ?
_exptl_crystal_density_meas              ?
_exptl_crystal_density_diffrn            10.91
_cell_measurement_temperature            ?
_cell_measurement_radiation              X-rays
_cell_measurement_reflns_used            ?
_diffrn_ambient_temperature              ?
_diffrn_measurement_device               'Guinier film'
_diffrn_measurement_device_type          ?
_diffrn_radiation_type                   ?
_diffrn_reflns_number                    ?
_exptl_absorpt_coefficient_mu            ?
_exptl_absorpt_correction_type           ?
_computing_structure_solution            ?
_refine_ls_number_parameters             ?
_refine_ls_number_reflns                 ?
_refine_ls_R_factor_gt                   ?
_refine_ls_wR_factor_gt                  ?

# End of data set 261681

