##############################################################################
#                                                                            #
# In-Ir            # IrIn2                                         #  450247 #
#                                                                            #
##############################################################################
#                                                                            #
#                           Pearson's Crystal Data                           #
#      Crystal Structure Database for Inorganic Compounds (on DVD)           #
#                              Release 2022/23                               #
#                  Editors: Pierre Villars and Karin Cenzual                 #
#                                                                            #
#   Copyright (c) ASM International & Material Phases Data System (MPDS),    #
# Switzerland & National Institute for Materials Science (NIMS), Japan, 2022 #
#                   All rights reserved. Version 2022.07                     #
#                                                                            #
#   This copy of Pearson's Crystal Data is licensed to:                      #
#   University of Alberta, Chemistry Department, 1-5 Installations License         #
#                                                                            #
##############################################################################

data_450247
_audit_creation_date                     2023-07-09
_audit_creation_method
;
Pearson's Crystal Data browser
;
#_database_code_PCD                      450247
_database_code_PDF                       04-002-9756

# Entry summary

_chemical_formula_structural             'Ir In~2~'
_chemical_formula_sum                    'In2 Ir'
_chemical_name_mineral                   ?
_chemical_compound_source                ?
_chemical_name_structure_type            Mg~2~Cu,oF48,70
_chemical_formula_weight                 421.9

# Bibliographic data

_publ_section_title
'Strukturelle Untersuchungen in den Systemen Iridium-Indium und Kobalt-Indium'
_journal_coden_ASTM                      JCOMAH
_journal_name_full                       'J. Less-Common Met.'
_journal_year                            1981
_journal_volume                          79
_journal_page_first                      P1
_journal_page_last                       P9
_journal_language                        German
loop_
 _publ_author_name
 _publ_author_address
'Ellner M.'
;
Max Planck Society (MPG)
Max Planck Institut (MPI) fur Metallforschung
Stuttgart
Germany
;
'Bhan S.'
;
Banaras Hindu University (Central Hindu College)
Department of Metallurgical Engineering
Varanasi / Uttar Pradesh
India
;

# Standardized crystallographic data

_cell_length_a                           5.349
_cell_length_b                           9.809
_cell_length_c                           18.06
_cell_angle_alpha                        90
_cell_angle_beta                         90
_cell_angle_gamma                        90
_cell_volume                             947.58
_cell_formula_units_Z                    16
_space_group_IT_number                   70
_space_group_name_H-M_alt                'F d d d (origin choice 2)'
loop_
 _space_group_symop_id
 _space_group_symop_operation_xyz
 1 'x, y, z'
 2 '1/4-x, 1/4-y, z'
 3 '1/4-x, y, 1/4-z'
 4 '-x, -y, -z'
 5 '-x, -1/4+y, -1/4+z'
 6 'x, 1/4-y, 1/4-z'
 7 '-1/4+x, -y, -1/4+z'
 8 '-1/4+x, -1/4+y, -z'
 9 'x, 1/2+y, 1/2+z'
 10 '1/4-x, 3/4-y, 1/2+z'
 11 '1/4-x, 1/2+y, 3/4-z'
 12 '-x, 1/2-y, 1/2-z'
 13 '-x, 1/4+y, 1/4+z'
 14 'x, 3/4-y, 3/4-z'
 15 '-1/4+x, 1/2-y, 1/4+z'
 16 '-1/4+x, 1/4+y, 1/2-z'
 17 '1/2+x, y, 1/2+z'
 18 '3/4-x, 1/4-y, 1/2+z'
 19 '3/4-x, y, 3/4-z'
 20 '1/2-x, -y, 1/2-z'
 21 '1/2-x, -1/4+y, 1/4+z'
 22 '1/2+x, 1/4-y, 3/4-z'
 23 '1/4+x, -y, 1/4+z'
 24 '1/4+x, -1/4+y, 1/2-z'
 25 '1/2+x, 1/2+y, z'
 26 '3/4-x, 3/4-y, z'
 27 '3/4-x, 1/2+y, 1/4-z'
 28 '1/2-x, 1/2-y, -z'
 29 '1/2-x, 1/4+y, -1/4+z'
 30 '1/2+x, 3/4-y, 1/4-z'
 31 '1/4+x, 1/2-y, -1/4+z'
 32 '1/4+x, 1/4+y, -z'

# Atomic positions taken from type-defining entry

loop_
 _atom_type_symbol
 In
 Ir
loop_
 _atom_site_label
 _atom_site_type_symbol
 _atom_site_symmetry_multiplicity
 _atom_site_Wyckoff_symbol
 _atom_site_fract_x
 _atom_site_fract_y
 _atom_site_fract_z
 _atom_site_occupancy
 In1 In 16 g 0.125 0.125 0.0415 1
 Ir1 Ir 16 g 0.125 0.125 0.49819 1
 In2 In 16 f 0.125 0.4586 0.125 1


_exptl_crystal_colour                    ?
_exptl_crystal_density_meas              ?
_exptl_crystal_density_diffrn            11.83
_cell_measurement_temperature            ?
_cell_measurement_radiation              X-rays
_cell_measurement_reflns_used            ?
_diffrn_ambient_temperature              ?
_diffrn_measurement_device               'Guinier film'
_diffrn_measurement_device_type          ?
_diffrn_radiation_type                   ?
_diffrn_reflns_number                    ?
_exptl_absorpt_coefficient_mu            ?
_exptl_absorpt_correction_type           ?
_computing_structure_solution            ?
_refine_ls_number_parameters             ?
_refine_ls_number_reflns                 ?
_refine_ls_R_factor_gt                   ?
_refine_ls_wR_factor_gt                  ?

# Published diffraction lines

loop_
 _refln_index_h
 _refln_index_k
 _refln_index_l
 _refln_d_spacing
 _refln_intensity_meas
 1 1 1 4.541 21
 0 4 0 4.512 12
 1 3 1 3.701 14
 1 5 1 2.861 16
 3 1 1 2.756 26
 2 6 0 2.564 58
 3 3 1 2.53 68
 4 0 0 2.451 39
 2 0 2 2.347 61
 1 7 1 2.259 99
 3 5 1 2.207 27
 4 4 0 2.154 78
 2 4 2 2.082 100
 0 6 2 1.999 2
 3 7 1 1.894 28
 1 9 1 1.845 25
 5 1 1 1.832 4
 4 2 2 1.772 4
 5 3 1 1.761 15
 1 1 3 1.745 12
 1 3 3 1.683 7
 4 8 0 1.66 3
 3 9 1 1.627 23
 6 2 0 1.608 26
 1 5 3 1.578 4
 3 1 3 1.559 10
 1 11 1 1.55 68
 3 3 3 1.515 43
 0 12 0 1.505 0.5
 5 7 1 1.499 56
 0 10 2 1.497 21
 1 7 3 1.451 54
 6 6 0 1.437 11
 3 11 1 1.416 71
 6 0 2 1.395 65
 5 9 1 1.358 10
 7 1 1 1.352 10
 3 7 3 1.338 46
 6 4 2 1.333 30
 7 3 1 1.321 13
 5 1 3 1.316 0.5
 5 3 3 1.289 9
 4 12 0 1.282 31
 4 10 2 1.277 6
 7 5 1 1.269 7
 2 12 2 1.267 21

# End of data set 450247

