##############################################################################
#                                                                            #
# Os-Si            # Os2Si3 rt                                     #  451619 #
#                                                                            #
##############################################################################
#                                                                            #
#                           Pearson's Crystal Data                           #
#      Crystal Structure Database for Inorganic Compounds (on DVD)           #
#                              Release 2022/23                               #
#                  Editors: Pierre Villars and Karin Cenzual                 #
#                                                                            #
#   Copyright (c) ASM International & Material Phases Data System (MPDS),    #
# Switzerland & National Institute for Materials Science (NIMS), Japan, 2022 #
#                   All rights reserved. Version 2022.07                     #
#                                                                            #
#   This copy of Pearson's Crystal Data is licensed to:                      #
#   University of Alberta, Chemistry Department, 1-5 Installations License         #
#                                                                            #
##############################################################################

data_451619
_audit_creation_date                     2023-07-09
_audit_creation_method
;
Pearson's Crystal Data browser
;
#_database_code_PCD                      451619
_database_code_PDF                       04-003-1004

# Entry summary

_chemical_formula_structural             'Os~2~ Si~3~'
_chemical_formula_sum                    'Os2 Si3'
_chemical_name_mineral                   ?
_chemical_compound_source                ?
_chemical_name_structure_type            Ru~2~Ge~3~,oP40,60
_chemical_formula_weight                 464.7

# Bibliographic data

_publ_section_title
;
The orthorhombic crystal structure of Ru~2~Si~3~, Ru~2~Ge~3~, Os~2~Si~3~ and Os~2~Ge~3~
;
_journal_coden_ASTM                      ACBCAR
_journal_name_full                       'Acta Crystallogr. B'
_journal_year                            1974
_journal_volume                          30
_journal_page_first                      2692
_journal_page_last                       2696
_journal_language                        English
loop_
 _publ_author_name
 _publ_author_address
'Pushcharovskii D.Y.'
;
Geneva University (UNIGE)
Laboratoire de Cristallographie aux Rayons X
Geneva
Switzerland
;
'Parthe E.'
;
Geneva University (UNIGE)
Laboratoire de Cristallographie aux Rayons X
Geneva
Switzerland
;

# Standardized crystallographic data

_cell_length_a                           11.124
_cell_length_b                           8.932
_cell_length_c                           5.57
_cell_angle_alpha                        90
_cell_angle_beta                         90
_cell_angle_gamma                        90
_cell_volume                             553.43
_cell_formula_units_Z                    8
_space_group_IT_number                   60
_space_group_name_H-M_alt                'P b c n'
loop_
 _space_group_symop_id
 _space_group_symop_operation_xyz
 1 'x, y, z'
 2 '1/2-x, 1/2-y, 1/2+z'
 3 '1/2-x, 1/2+y, z'
 4 '-x, -y, -z'
 5 '-x, y, 1/2-z'
 6 '1/2+x, 1/2-y, -z'
 7 '1/2+x, 1/2+y, 1/2-z'
 8 'x, -y, 1/2+z'

# Atomic positions taken from type-defining entry

loop_
 _atom_type_symbol
 Si
 Os
loop_
 _atom_site_label
 _atom_site_type_symbol
 _atom_site_symmetry_multiplicity
 _atom_site_Wyckoff_symbol
 _atom_site_fract_x
 _atom_site_fract_y
 _atom_site_fract_z
 _atom_site_occupancy
 Si1 Si 8 d 0.074 0.2774 0.0342 1
 Si2 Si 8 d 0.1712 0.4317 0.4121 1
 Os1 Os 8 d 0.2524 0.1869 0.2582 1
 Si3 Si 8 d 0.3627 0.4014 0.1004 1
 Os2 Os 4 c 0 0.0719 0.25 1
 Os3 Os 4 c 0 0.5476 0.25 1


_exptl_crystal_colour                    ?
_exptl_crystal_density_meas              ?
_exptl_crystal_density_diffrn            11.15
_cell_measurement_temperature            ?
_cell_measurement_radiation              'X-rays, Mo Ka'
_cell_measurement_reflns_used            ?
_diffrn_ambient_temperature              ?
_diffrn_measurement_device               diffractometer
_diffrn_measurement_device_type          ?
_diffrn_radiation_type                   ?
_diffrn_reflns_number                    ?
_exptl_absorpt_coefficient_mu            ?
_exptl_absorpt_correction_type           ?
_computing_structure_solution            ?
_refine_ls_number_parameters             ?
_refine_ls_number_reflns                 ?
_refine_ls_R_factor_gt                   ?
_refine_ls_wR_factor_gt                  ?

# End of data set 451619

