##############################################################################
#                                                                            #
# Pd-Si            # Pd2Si                                         #  452318 #
#                                                                            #
##############################################################################
#                                                                            #
#                           Pearson's Crystal Data                           #
#      Crystal Structure Database for Inorganic Compounds (on DVD)           #
#                              Release 2022/23                               #
#                  Editors: Pierre Villars and Karin Cenzual                 #
#                                                                            #
#   Copyright (c) ASM International & Material Phases Data System (MPDS),    #
# Switzerland & National Institute for Materials Science (NIMS), Japan, 2022 #
#                   All rights reserved. Version 2022.07                     #
#                                                                            #
#   This copy of Pearson's Crystal Data is licensed to:                      #
#   University of Alberta, Chemistry Department, 1-5 Installations License         #
#                                                                            #
##############################################################################

data_452318
_audit_creation_date                     2023-07-09
_audit_creation_method
;
Pearson's Crystal Data browser
;
#_database_code_PCD                      452318
_database_code_PDF                       04-003-1610

# Entry summary

_chemical_formula_structural             'Pd~2~ Si'
_chemical_formula_sum                    'Pd2 Si'
_chemical_name_mineral                   ?
_chemical_compound_source                ?
_chemical_name_structure_type            Fe~2~P,hP9,189
_chemical_formula_weight                 240.9

# Bibliographic data

_publ_section_title
'Kristallstruktur von Pd~2~Si, Pd~2~Ge und Pt~2~Ge'                           
_journal_coden_ASTM                      ZEMTAE
_journal_name_full                       'Z. Metallkd.'
_journal_year                            1953
_journal_volume                          44
_journal_page_first                      307
_journal_page_last                       312
_journal_language                        German
loop_
 _publ_author_name
 _publ_author_address
'Anderko K.'
;
Max Planck Society (MPG)
Max Planck Institut (MPI) fur Metallforschung
Stuttgart
Germany
;
'Schubert K.'
;
Max Planck Society (MPG)
Max Planck Institut (MPI) fur Metallforschung
Stuttgart
Germany
;

# Standardized crystallographic data

_cell_length_a                           6.49
_cell_length_b                           6.49
_cell_length_c                           3.43
_cell_angle_alpha                        90
_cell_angle_beta                         90
_cell_angle_gamma                        120
_cell_volume                             125.12
_cell_formula_units_Z                    3
_space_group_IT_number                   189
_space_group_name_H-M_alt                'P -6 2 m'
loop_
 _space_group_symop_id
 _space_group_symop_operation_xyz
 1 'x, y, z'
 2 '-x+y, -x, -z'
 3 '-x+y, -x, z'
 4 '-x, -x+y, -z'
 5 '-x, -x+y, z'
 6 '-y, x-y, -z'
 7 '-y, x-y, z'
 8 'x, y, -z'
 9 'x-y, -y, -z'
 10 'x-y, -y, z'
 11 'y, x, -z'
 12 'y, x, z'

# Atomic positions taken from type-defining entry

loop_
 _atom_type_symbol
 Pd
 Si
loop_
 _atom_site_label
 _atom_site_type_symbol
 _atom_site_symmetry_multiplicity
 _atom_site_Wyckoff_symbol
 _atom_site_fract_x
 _atom_site_fract_y
 _atom_site_fract_z
 _atom_site_occupancy
 Pd1 Pd 3 g 0.25683 0 0.5 1
 Pd2 Pd 3 f 0.59461 0 0 1
 Si1 Si 2 d 0.333333 0.666667 0.5 1
 Si2 Si 1 a 0 0 0 1


_exptl_crystal_colour                    ?
_exptl_crystal_density_meas              ?
_exptl_crystal_density_diffrn            9.59
_cell_measurement_temperature            ?
_cell_measurement_radiation              'X-rays, Cu Ka'
_cell_measurement_reflns_used            ?
_diffrn_ambient_temperature              ?
_diffrn_measurement_device               ?
_diffrn_measurement_device_type          ?
_diffrn_radiation_type                   ?
_diffrn_reflns_number                    ?
_exptl_absorpt_coefficient_mu            ?
_exptl_absorpt_correction_type           ?
_computing_structure_solution            ?
_refine_ls_number_parameters             ?
_refine_ls_number_reflns                 ?
_refine_ls_R_factor_gt                   ?
_refine_ls_wR_factor_gt                  ?

# Published diffraction lines

loop_
 _refln_index_h
 _refln_index_k
 _refln_index_l
 _refln_d_spacing
 _refln_intensity_meas
 1 1 0 3.209 3
 1 0 1 2.903 3
 1 1 1 2.35 7
 2 0 1 2.166 7
 1 2 0 2.118 7
 3 0 0 1.874 5
 1 2 1 1.808 3
 0 0 2 1.716 4.5
 3 1 0 1.558 3
 1 1 2 1.517 2
 2 2 1 1.467 3
 3 1 1 1.419 5
 1 2 2 1.334 5
 4 0 1 1.299 3
 3 2 0 1.29 2
 3 0 2 1.265 5
 3 2 1 1.207 5.5
 3 1 2 1.152 3
 5 0 0 1.124 2
 4 0 2 1.086 1
 1 1 3 1.079 3
 5 0 1 1.068 2
 2 0 3 1.062 3
 3 3 1 1.037 1
 3 2 2 1.03 3
 2 1 3 1.008 3
 5 1 1 0.969 3
 3 1 3 0.921 3
 5 2 0 0.903 3
 4 3 1 0.893 2
 4 0 3 0.888 2
 5 1 2 0.87 4.5
 0 0 4 0.856 5
 6 1 1 0.832 5
 4 4 0 0.812 3
 5 2 2 0.795 7
 4 4 1 0.79 5
 7 0 1 0.783 5
 6 2 0 0.781 5

# End of data set 452318

