##############################################################################
#                                                                            #
# Ge-Ru            # RuGe rt                                       #  452343 #
#                                                                            #
##############################################################################
#                                                                            #
#                           Pearson's Crystal Data                           #
#      Crystal Structure Database for Inorganic Compounds (on DVD)           #
#                              Release 2022/23                               #
#                  Editors: Pierre Villars and Karin Cenzual                 #
#                                                                            #
#   Copyright (c) ASM International & Material Phases Data System (MPDS),    #
# Switzerland & National Institute for Materials Science (NIMS), Japan, 2022 #
#                   All rights reserved. Version 2022.07                     #
#                                                                            #
#   This copy of Pearson's Crystal Data is licensed to:                      #
#   University of Alberta, Chemistry Department, 1-5 Installations License         #
#                                                                            #
##############################################################################

data_452343
_audit_creation_date                     2023-07-09
_audit_creation_method
;
Pearson's Crystal Data browser
;
#_database_code_PCD                      452343
_database_code_PDF                       04-003-1629

# Entry summary

_chemical_formula_structural             'Ru Ge'
_chemical_formula_sum                    'Ge Ru'
_chemical_name_mineral                   ?
_chemical_compound_source                ?
_chemical_name_structure_type            FeSi,cP8,198
_chemical_formula_weight                 173.7

# Bibliographic data

_publ_section_title                      Germanium-Ruthenium-Legierungen
_journal_coden_ASTM                      ZEMTAE
_journal_name_full                       'Z. Metallkd.'
_journal_year                            1962
_journal_volume                          53
_journal_page_first                      779
_journal_page_last                       781
_journal_language                        German
loop_
 _publ_author_name
 _publ_author_address
'Raub E.'
;
Research Institute for Precious Metals and Metal Chemistry (FEM)
Schwabisch Gmund
Germany
;
'Fritzsche W.'
;
Research Institute for Precious Metals and Metal Chemistry (FEM)
Schwabisch Gmund
Germany
;

# Standardized crystallographic data

_cell_length_a                           4.816
_cell_length_b                           4.816
_cell_length_c                           4.816
_cell_angle_alpha                        90
_cell_angle_beta                         90
_cell_angle_gamma                        90
_cell_volume                             111.7
_cell_formula_units_Z                    4
_space_group_IT_number                   198
_space_group_name_H-M_alt                'P 21 3'
loop_
 _space_group_symop_id
 _space_group_symop_operation_xyz
 1 'x, y, z'
 2 '1/2-x, -y, 1/2+z'
 3 '-x, 1/2+y, 1/2-z'
 4 '1/2-y, -z, 1/2+x'
 5 '-y, 1/2+z, 1/2-x'
 6 '1/2-z, -x, 1/2+y'
 7 '-z, 1/2+x, 1/2-y'
 8 '1/2+x, 1/2-y, -z'
 9 '1/2+y, 1/2-z, -x'
 10 'y, z, x'
 11 '1/2+z, 1/2-x, -y'
 12 'z, x, y'

# Atomic positions taken from type-defining entry

loop_
 _atom_type_symbol
 Ge
 Ru
loop_
 _atom_site_label
 _atom_site_type_symbol
 _atom_site_symmetry_multiplicity
 _atom_site_Wyckoff_symbol
 _atom_site_fract_x
 _atom_site_fract_y
 _atom_site_fract_z
 _atom_site_occupancy
 Ge1 Ge 4 a 0.09262 0.09262 0.09262 1
 Ru1 Ru 4 a 0.3865 0.3865 0.3865 1


_exptl_crystal_colour                    ?
_exptl_crystal_density_meas              ?
_exptl_crystal_density_diffrn            10.33
_cell_measurement_temperature            ?
_cell_measurement_radiation              'X-rays, Cu Ka'
_cell_measurement_reflns_used            ?
_diffrn_ambient_temperature              ?
_diffrn_measurement_device               ?
_diffrn_measurement_device_type          ?
_diffrn_radiation_type                   ?
_diffrn_reflns_number                    ?
_exptl_absorpt_coefficient_mu            ?
_exptl_absorpt_correction_type           ?
_computing_structure_solution            ?
_refine_ls_number_parameters             ?
_refine_ls_number_reflns                 ?
_refine_ls_R_factor_gt                   ?
_refine_ls_wR_factor_gt                  ?

# Published diffraction lines

loop_
 _refln_index_h
 _refln_index_k
 _refln_index_l
 _refln_d_spacing
 _refln_intensity_meas
 1 1 0 3.406 6
 1 1 1 2.772 6
 2 0 0 2.411 3
 1 2 0 2.157 8
 1 2 1 1.971 8
 2 2 0 1.712 1
 1 2 2 1.613 3
 0 3 1 1.53 3
 1 3 1 1.461 7
 2 2 2 1.397 2
 2 3 0 1.378 6
 1 3 2 1.295 7
 4 0 0 1.212 6
 1 4 0 1.176 3
 3 3 0 1.143 6
 3 3 1 1.112 6
 0 4 2 1.084 1
 1 4 2 1.057 7
 3 3 2 1.033 3
 2 4 2 0.989 2
 5 0 0 0.969 1
 0 5 1 0.951 6
 1 5 1 0.932 3
 2 5 0 0.9 7
 1 5 2 0.885 6
 4 4 0 0.857 6
 4 4 1 0.844 2
 0 5 3 0.832 3
 1 5 3 0.82 6
 2 4 4 0.808 6
 1 6 0 0.797 7
 2 5 3 0.787 8

# End of data set 452343

