##############################################################################
#                                                                            #
# Rh-Si            # Rh2Si                                         #  452658 #
#                                                                            #
##############################################################################
#                                                                            #
#                           Pearson's Crystal Data                           #
#      Crystal Structure Database for Inorganic Compounds (on DVD)           #
#                              Release 2022/23                               #
#                  Editors: Pierre Villars and Karin Cenzual                 #
#                                                                            #
#   Copyright (c) ASM International & Material Phases Data System (MPDS),    #
# Switzerland & National Institute for Materials Science (NIMS), Japan, 2022 #
#                   All rights reserved. Version 2022.07                     #
#                                                                            #
#   This copy of Pearson's Crystal Data is licensed to:                      #
#   University of Alberta, Chemistry Department, 1-5 Installations License         #
#                                                                            #
##############################################################################

data_452658
_audit_creation_date                     2023-07-09
_audit_creation_method
;
Pearson's Crystal Data browser
;
#_database_code_PCD                      452658
_database_code_PDF                       04-003-1879

# Entry summary

_chemical_formula_structural             'Rh~2~ Si'
_chemical_formula_sum                    'Rh2 Si'
_chemical_name_mineral                   ?
_chemical_compound_source                ?
_chemical_name_structure_type            Co~2~Si-b,oP12,62
_chemical_formula_weight                 233.9

# Bibliographic data

_publ_section_title
;
The Crystal Structures of Rh~2~Si and Rh~5~Si~3~ with some Notes on the Rh-Si System
;
_journal_coden_ASTM                      ACSAA4
_journal_name_full                       'Acta Chem. Scand.'
_journal_year                            1963
_journal_volume                          17
_journal_page_first                      775
_journal_page_last                       784
_journal_language                        English
loop_
 _publ_author_name
 _publ_author_address
'Engstrom I.'
;
Uppsala University
Institute of Chemistry
Uppsala
Sweden
;

# Standardized crystallographic data

_cell_length_a                           5.408
_cell_length_b                           3.93
_cell_length_c                           7.383
_cell_angle_alpha                        90
_cell_angle_beta                         90
_cell_angle_gamma                        90
_cell_volume                             156.91
_cell_formula_units_Z                    4
_space_group_IT_number                   62
_space_group_name_H-M_alt                'P n m a'
loop_
 _space_group_symop_id
 _space_group_symop_operation_xyz
 1 'x, y, z'
 2 '1/2-x, -y, 1/2+z'
 3 '1/2-x, 1/2+y, 1/2+z'
 4 '-x, -y, -z'
 5 '-x, 1/2+y, -z'
 6 '1/2+x, 1/2-y, 1/2-z'
 7 '1/2+x, y, 1/2-z'
 8 'x, 1/2-y, z'
loop_
 _atom_type_symbol
 Rh
 Si
loop_
 _atom_site_label
 _atom_site_type_symbol
 _atom_site_symmetry_multiplicity
 _atom_site_Wyckoff_symbol
 _atom_site_fract_x
 _atom_site_fract_y
 _atom_site_fract_z
 _atom_site_occupancy
 RhII Rh 4 c 0.0272 0.25 0.6991 1
 RhI Rh 4 c 0.1607 0.25 0.0694 1
 Si Si 4 c 0.2181 0.25 0.3948 1


_exptl_crystal_colour                    ?
_exptl_crystal_density_meas              ?
_exptl_crystal_density_diffrn            9.90
_cell_measurement_temperature            ?
_cell_measurement_radiation              'X-rays, Cu Ka'
_cell_measurement_reflns_used            ?
_diffrn_ambient_temperature              ?
_diffrn_measurement_device               'Weissenberg photographs'
_diffrn_measurement_device_type          ?
_diffrn_radiation_type                   'X-rays, Mo K'
_diffrn_reflns_number                    ?
_exptl_absorpt_coefficient_mu            ?
_exptl_absorpt_correction_type           ?
_computing_structure_solution            'starting values from the literature'
_refine_ls_number_parameters             ?
_refine_ls_number_reflns                 ?
_refine_ls_R_factor_gt                   0.093
_refine_ls_wR_factor_gt                  ?

# Published diffraction lines

loop_
 _refln_index_h
 _refln_index_k
 _refln_index_l
 _refln_d_spacing
 _refln_intensity_meas
 1 0 1 4.379 2.5
 0 1 1 3.469 5
 1 0 2 3.05 5
 1 1 1 2.92 7
 1 1 2 2.41 7.5
 1 0 3 2.24 7
 2 1 0 2.227 7.5
 2 0 2 2.181 7
 2 1 1 2.133 7.5
 0 1 3 2.087 7.5
 0 2 0 1.966 7
 1 1 3 1.947 3
 2 0 3 1.82 5
 3 0 1 1.752 5
 1 2 2 1.652 3
 3 0 2 1.621 2.5
 1 1 4 1.597 2.5
 2 0 4 1.525 2.5
 1 2 3 1.477 5
 2 2 2 1.46 5.5
 1 0 5 1.425 3.5

# End of data set 452658

