##############################################################################
#                                                                            #
# Ir-Si            # Ir3Si4                                        #  452818 #
#                                                                            #
##############################################################################
#                                                                            #
#                           Pearson's Crystal Data                           #
#      Crystal Structure Database for Inorganic Compounds (on DVD)           #
#                              Release 2022/23                               #
#                  Editors: Pierre Villars and Karin Cenzual                 #
#                                                                            #
#   Copyright (c) ASM International & Material Phases Data System (MPDS),    #
# Switzerland & National Institute for Materials Science (NIMS), Japan, 2022 #
#                   All rights reserved. Version 2022.07                     #
#                                                                            #
#   This copy of Pearson's Crystal Data is licensed to:                      #
#   University of Alberta, Chemistry Department, 1-5 Installations License         #
#                                                                            #
##############################################################################

data_452818
_audit_creation_date                     2023-07-09
_audit_creation_method
;
Pearson's Crystal Data browser
;
#_database_code_PCD                      452818
_database_code_PDF                       04-003-2017

# Entry summary

_chemical_formula_structural             'Ir~3~ Si~4~'
_chemical_formula_sum                    'Ir3 Si4'
_chemical_name_mineral                   ?
_chemical_compound_source                ?
_chemical_name_structure_type            Rh~3~Si~4~,oP28,62
_chemical_formula_weight                 689.0

# Bibliographic data

_publ_section_title
'X-Ray Studies of Silicon-rich Iridium Silicides'                             
_journal_coden_ASTM                      ACSAA4
_journal_name_full                       'Acta Chem. Scand.'
_journal_year                            1970
_journal_volume                          24
_journal_page_first                      2109
_journal_page_last                       2116
_journal_language                        English
loop_
 _publ_author_name
 _publ_author_address
'Engstrom I.'
;
Uppsala University
Institute of Chemistry
Uppsala
Sweden
;
'Zackrisson F.'
;
Uppsala University
Institute of Chemistry
Uppsala
Sweden
;

# Standardized crystallographic data

_cell_length_a                           18.8741
_cell_length_b                           3.6979
_cell_length_c                           5.7717
_cell_angle_alpha                        90
_cell_angle_beta                         90
_cell_angle_gamma                        90
_cell_volume                             402.83
_cell_formula_units_Z                    4
_space_group_IT_number                   62
_space_group_name_H-M_alt                'P n m a'
loop_
 _space_group_symop_id
 _space_group_symop_operation_xyz
 1 'x, y, z'
 2 '1/2-x, -y, 1/2+z'
 3 '1/2-x, 1/2+y, 1/2+z'
 4 '-x, -y, -z'
 5 '-x, 1/2+y, -z'
 6 '1/2+x, 1/2-y, 1/2-z'
 7 '1/2+x, y, 1/2-z'
 8 'x, 1/2-y, z'
loop_
 _atom_type_symbol
 Si
 Ir
loop_
 _atom_site_label
 _atom_site_type_symbol
 _atom_site_symmetry_multiplicity
 _atom_site_Wyckoff_symbol
 _atom_site_fract_x
 _atom_site_fract_y
 _atom_site_fract_z
 _atom_site_occupancy
 Si(4) Si 4 c 0.04118 0.25 0.5233 1
 Si(3) Si 4 c 0.0912 0.25 0.0832 1
 Ir(3) Ir 4 c 0.1743 0.25 0.39071 1
 Si(2) Si 4 c 0.22965 0.25 0.7848 1
 Ir(2) Ir 4 c 0.3237 0.25 0.50085 1
 Si(1) Si 4 c 0.35629 0.25 0.1144 1
 Ir(1) Ir 4 c 0.46846 0.25 0.30754 1


_exptl_crystal_colour                    ?
_exptl_crystal_density_meas              ?
_exptl_crystal_density_diffrn            11.36
_cell_measurement_temperature            ?
_cell_measurement_radiation              'X-rays, Cr Ka1, Cu Ka1'
_cell_measurement_reflns_used            ?
_diffrn_ambient_temperature              ?
_diffrn_measurement_device               'Weissenberg photographs'
_diffrn_measurement_device_type          ?
_diffrn_radiation_type                   'X-rays, Mo K'
_diffrn_reflns_number                    ?
_exptl_absorpt_coefficient_mu            ?
_exptl_absorpt_correction_type           no
_computing_structure_solution            'Patterson and Fourier synthesis'
_refine_ls_number_parameters             ?
_refine_ls_number_reflns                 ?
_refine_ls_R_factor_gt                   0.127
_refine_ls_wR_factor_gt                  ?

# End of data set 452818

