##############################################################################
#                                                                            #
# Os-Si            # OsSi2 rt                                      #  452823 #
#                                                                            #
##############################################################################
#                                                                            #
#                           Pearson's Crystal Data                           #
#      Crystal Structure Database for Inorganic Compounds (on DVD)           #
#                              Release 2022/23                               #
#                  Editors: Pierre Villars and Karin Cenzual                 #
#                                                                            #
#   Copyright (c) ASM International & Material Phases Data System (MPDS),    #
# Switzerland & National Institute for Materials Science (NIMS), Japan, 2022 #
#                   All rights reserved. Version 2022.07                     #
#                                                                            #
#   This copy of Pearson's Crystal Data is licensed to:                      #
#   University of Alberta, Chemistry Department, 1-5 Installations License         #
#                                                                            #
##############################################################################

data_452823
_audit_creation_date                     2023-07-09
_audit_creation_method
;
Pearson's Crystal Data browser
;
#_database_code_PCD                      452823
_database_code_PDF                       04-003-2022

# Entry summary

_chemical_formula_structural             'Os Si~2~'
_chemical_formula_sum                    'Os Si2'
_chemical_name_mineral                   ?
_chemical_compound_source                ?
_chemical_name_structure_type            FeSi~2~,oS48,64
_chemical_formula_weight                 246.4

# Bibliographic data

_publ_section_title                      'The Crystal Structure of OsSi~2~'
_journal_coden_ASTM                      ACSAA4
_journal_name_full                       'Acta Chem. Scand.'
_journal_year                            1970
_journal_volume                          24
_journal_page_first                      2117
_journal_page_last                       2125
_journal_language                        English
loop_
 _publ_author_name
 _publ_author_address
'Engstrom I.'
;
Uppsala University
Institute of Chemistry
Uppsala
Sweden
;

# Standardized crystallographic data

_cell_length_a                           10.1496
_cell_length_b                           8.1168
_cell_length_c                           8.223
_cell_angle_alpha                        90
_cell_angle_beta                         90
_cell_angle_gamma                        90
_cell_volume                             677.43
_cell_formula_units_Z                    16
_space_group_IT_number                   64
_space_group_name_H-M_alt                'C m c e'
loop_
 _space_group_symop_id
 _space_group_symop_operation_xyz
 1 'x, y, z'
 2 '-x, 1/2-y, 1/2+z'
 3 '-x, -y, -z'
 4 '-x, 1/2+y, 1/2-z'
 5 '-x, y, z'
 6 'x, 1/2-y, 1/2+z'
 7 'x, -y, -z'
 8 'x, 1/2+y, 1/2-z'
 9 '1/2+x, 1/2+y, z'
 10 '1/2-x, 1-y, 1/2+z'
 11 '1/2-x, 1/2-y, -z'
 12 '1/2-x, 1+y, 1/2-z'
 13 '1/2-x, 1/2+y, z'
 14 '1/2+x, 1-y, 1/2+z'
 15 '1/2+x, 1/2-y, -z'
 16 '1/2+x, 1+y, 1/2-z'
loop_
 _atom_type_symbol
 Si
 Os
loop_
 _atom_site_label
 _atom_site_type_symbol
 _atom_site_symmetry_multiplicity
 _atom_site_Wyckoff_symbol
 _atom_site_fract_x
 _atom_site_fract_y
 _atom_site_fract_z
 _atom_site_occupancy
 SiII Si 16 g 0.128 0.0534 0.2748 1
 SiI Si 16 g 0.1301 0.2792 0.0597 1
 OsII Os 8 f 0 0.3119 0.3188 1
 OsI Os 8 d 0.2142 0 0 1


_exptl_crystal_colour                    ?
_exptl_crystal_density_meas              ?
_exptl_crystal_density_diffrn            9.66
_cell_measurement_temperature            ?
_cell_measurement_radiation              'X-rays, Cu Ka1'
_cell_measurement_reflns_used            ?
_diffrn_ambient_temperature              ?
_diffrn_measurement_device               'Weissenberg photographs'
_diffrn_measurement_device_type          ?
_diffrn_radiation_type                   'X-rays, Mo K'
_diffrn_reflns_number                    270
_exptl_absorpt_coefficient_mu            ?
_exptl_absorpt_correction_type           ?
_computing_structure_solution            'Patterson and Fourier synthesis'
_refine_ls_number_parameters             ?
_refine_ls_number_reflns                 ?
_refine_ls_R_factor_gt                   0.083
_refine_ls_wR_factor_gt                  ?

# End of data set 452823

