##############################################################################
#                                                                            #
# Ni-Sb            # NiSb2                                         #  452978 #
#                                                                            #
##############################################################################
#                                                                            #
#                           Pearson's Crystal Data                           #
#      Crystal Structure Database for Inorganic Compounds (on DVD)           #
#                              Release 2022/23                               #
#                  Editors: Pierre Villars and Karin Cenzual                 #
#                                                                            #
#   Copyright (c) ASM International & Material Phases Data System (MPDS),    #
# Switzerland & National Institute for Materials Science (NIMS), Japan, 2022 #
#                   All rights reserved. Version 2022.07                     #
#                                                                            #
#   This copy of Pearson's Crystal Data is licensed to:                      #
#   University of Alberta, Chemistry Department, 1-5 Installations License         #
#                                                                            #
##############################################################################

data_452978
_audit_creation_date                     2023-07-09
_audit_creation_method
;
Pearson's Crystal Data browser
;
#_database_code_PCD                      452978
_database_code_PDF                       04-003-2145

# Entry summary

_chemical_formula_structural             'Ni Sb~2~'
_chemical_formula_sum                    'Ni Sb2'
_chemical_name_mineral                   nisbite
_chemical_compound_source                ?
_chemical_name_structure_type            FeAs~2~,oP6,58
_chemical_formula_weight                 302.2

# Bibliographic data

_publ_section_title
;
Magnetic and crystallographic studies on the higher antimonides of iron, cobalt and nickel
;
_journal_coden_ASTM                      AMETAR
_journal_name_full                       'Acta Metall.'
_journal_year                            1953
_journal_volume                          1
_journal_page_first                      761
_journal_page_last                       763
_journal_language                        English
loop_
 _publ_author_name
 _publ_author_address
'Rosenqvist T.'
;
Norwegian Institute of Technology (NTH)
Department of Metallurgy
Trondheim
Norway
;

# Standardized crystallographic data

_cell_length_a                           5.18
_cell_length_b                           6.314
_cell_length_c                           3.838
_cell_angle_alpha                        90
_cell_angle_beta                         90
_cell_angle_gamma                        90
_cell_volume                             125.53
_cell_formula_units_Z                    2
_space_group_IT_number                   58
_space_group_name_H-M_alt                'P n n m'
loop_
 _space_group_symop_id
 _space_group_symop_operation_xyz
 1 'x, y, z'
 2 '1/2-x, 1/2+y, 1/2-z'
 3 '1/2-x, 1/2+y, 1/2+z'
 4 '-x, -y, -z'
 5 '-x, -y, z'
 6 '1/2+x, 1/2-y, 1/2-z'
 7 '1/2+x, 1/2-y, 1/2+z'
 8 'x, y, -z'
loop_
 _atom_type_symbol
 Sb
 Ni
loop_
 _atom_site_label
 _atom_site_type_symbol
 _atom_site_symmetry_multiplicity
 _atom_site_Wyckoff_symbol
 _atom_site_fract_x
 _atom_site_fract_y
 _atom_site_fract_z
 _atom_site_occupancy
 Sb Sb 4 g 0.22 0.36 0 1
 Ni Ni 2 a 0 0 0 1


_exptl_crystal_colour                    ?
_exptl_crystal_density_meas              7.85
_exptl_crystal_density_diffrn            8.00
_cell_measurement_temperature            ?
_cell_measurement_radiation              X-rays
_cell_measurement_reflns_used            ?
_diffrn_ambient_temperature              ?
_diffrn_measurement_device               film
_diffrn_measurement_device_type          ?
_diffrn_radiation_type                   X-rays
_diffrn_reflns_number                    ?
_exptl_absorpt_coefficient_mu            ?
_exptl_absorpt_correction_type           ?
_computing_structure_solution            'starting values from the literature'
_refine_ls_number_parameters             ?
_refine_ls_number_reflns                 ?
_refine_ls_R_factor_gt                   ?
_refine_ls_wR_factor_gt                  ?
_pd_proc_ls_proof_R_factor               ?
_pd_proc_ls_proof_wR_factor              ?
_refine_ls_R_I_factor                    ?

# End of data set 452978

