##############################################################################
#                                                                            #
# Fe-Si            # Fe0.92Si2 ht                                  #  456476 #
#                                                                            #
##############################################################################
#                                                                            #
#                           Pearson's Crystal Data                           #
#      Crystal Structure Database for Inorganic Compounds (on DVD)           #
#                              Release 2022/23                               #
#                  Editors: Pierre Villars and Karin Cenzual                 #
#                                                                            #
#   Copyright (c) ASM International & Material Phases Data System (MPDS),    #
# Switzerland & National Institute for Materials Science (NIMS), Japan, 2022 #
#                   All rights reserved. Version 2022.07                     #
#                                                                            #
#   This copy of Pearson's Crystal Data is licensed to:                      #
#   University of Alberta, Chemistry Department, 1-5 Installations License         #
#                                                                            #
##############################################################################

data_456476
_audit_creation_date                     2023-07-09
_audit_creation_method
;
Pearson's Crystal Data browser
;
#_database_code_PCD                      456476
_database_code_PDF                       ?

# Entry summary

_chemical_formula_structural             'Fe Si~2~'
_chemical_formula_sum                    'Fe Si2'
_chemical_name_mineral                   linzhiite
_chemical_compound_source                synthetic
_chemical_name_structure_type            Fe~0.92~Si~2~,tP3,123
_chemical_formula_weight                 112.0

# Bibliographic data

_publ_section_title
'On the type of defects in an alpha-leboite'                                  
_journal_coden_ASTM                      PHMMA6
_journal_name_full                       'Phys. Met. Metallogr.'
_journal_year                            1959
_journal_volume                          8
_journal_issue                           3
_journal_page_first                      134
_journal_page_last                       135
_journal_language                        English
loop_
 _publ_author_name
 _publ_author_address
'Sidorenko F.A.'
;
Ural Polytechnic Institute
Yekaterinburg
Russia
;
'Gel'd P.V.'
;
Russian Academy of Sciences (RAS)
Yekaterinburg
Russia
;
'Dubrovskaya L.B.'
;
Russian Academy of Sciences (RAS)
Institute of Chemistry
Yekaterinburg
Russia
;

# Standardized crystallographic data

_cell_length_a                           2.6937
_cell_length_b                           2.6937
_cell_length_c                           5.139
_cell_angle_alpha                        90
_cell_angle_beta                         90
_cell_angle_gamma                        90
_cell_volume                             37.29
_cell_formula_units_Z                    1
_space_group_IT_number                   123
_space_group_name_H-M_alt                'P 4/m m m'
loop_
 _space_group_symop_id
 _space_group_symop_operation_xyz
 1 'x, y, z'
 2 '-x, -y, -z'
 3 '-x, -y, z'
 4 '-x, y, -z'
 5 '-x, y, z'
 6 '-y, -x, -z'
 7 '-y, -x, z'
 8 '-y, x, -z'
 9 '-y, x, z'
 10 'x, -y, -z'
 11 'x, -y, z'
 12 'x, y, -z'
 13 'y, -x, -z'
 14 'y, -x, z'
 15 'y, x, -z'
 16 'y, x, z'

# Atomic positions taken from type-defining entry

loop_
 _atom_type_symbol
 Si
 Fe
loop_
 _atom_site_label
 _atom_site_type_symbol
 _atom_site_symmetry_multiplicity
 _atom_site_Wyckoff_symbol
 _atom_site_fract_x
 _atom_site_fract_y
 _atom_site_fract_z
 _atom_site_occupancy
 Si1 Si 2 h 0.5 0.5 0.2700 1
 Fe1 Fe 1 a 0 0 0 1


_exptl_crystal_colour                    ?
_exptl_crystal_density_meas              4.64
_exptl_crystal_density_diffrn            4.99
_cell_measurement_temperature            ?
_cell_measurement_radiation              X-rays
_cell_measurement_reflns_used            ?
_diffrn_ambient_temperature              ?
_diffrn_measurement_device               film
_diffrn_measurement_device_type          ?
_diffrn_radiation_type                   ?
_diffrn_reflns_number                    ?
_exptl_absorpt_coefficient_mu            ?
_exptl_absorpt_correction_type           ?
_computing_structure_solution            ?
_refine_ls_number_parameters             ?
_refine_ls_number_reflns                 ?
_refine_ls_R_factor_gt                   ?
_refine_ls_wR_factor_gt                  ?

# End of data set 456476

