##############################################################################
#                                                                            #
# Co-Si            # CoSi                                          #  458420 #
#                                                                            #
##############################################################################
#                                                                            #
#                           Pearson's Crystal Data                           #
#      Crystal Structure Database for Inorganic Compounds (on DVD)           #
#                              Release 2022/23                               #
#                  Editors: Pierre Villars and Karin Cenzual                 #
#                                                                            #
#   Copyright (c) ASM International & Material Phases Data System (MPDS),    #
# Switzerland & National Institute for Materials Science (NIMS), Japan, 2022 #
#                   All rights reserved. Version 2022.07                     #
#                                                                            #
#   This copy of Pearson's Crystal Data is licensed to:                      #
#   University of Alberta, Chemistry Department, 1-5 Installations License         #
#                                                                            #
##############################################################################

data_458420
_audit_creation_date                     2023-07-09
_audit_creation_method
;
Pearson's Crystal Data browser
;
#_database_code_PCD                      458420
_database_code_PDF                       04-003-6997

# Entry summary

_chemical_formula_structural             'Co Si'
_chemical_formula_sum                    'Co Si'
_chemical_name_mineral                   ?
_chemical_compound_source                ?
_chemical_name_structure_type            FeSi,cP8,198
_chemical_formula_weight                 87.0

# Bibliographic data

_publ_section_title
;
X-ray diffraction and X-ray spectrum examinations of the Co-Si-Ge system alloys
;
_journal_coden_ASTM                      UFIZAW
_journal_name_full                       'Ukr. Fiz. Zh. Russ. Ed.'
_journal_year                            1978
_journal_volume                          23
_journal_page_first                      624
_journal_page_last                       627
_journal_language                        Russian
loop_
 _publ_author_name
 _publ_author_address
'Kavich I.V.'
;
Lviv Ivan Franko State University
Lviv
Ukraine
;
'Shevchuk L.P.'
;
Lviv Ivan Franko State University
Lviv
Ukraine
;

# Standardized crystallographic data

_cell_length_a                           4.45
_cell_length_b                           4.45
_cell_length_c                           4.45
_cell_angle_alpha                        90
_cell_angle_beta                         90
_cell_angle_gamma                        90
_cell_volume                             88.12
_cell_formula_units_Z                    4
_space_group_IT_number                   198
_space_group_name_H-M_alt                'P 21 3'
loop_
 _space_group_symop_id
 _space_group_symop_operation_xyz
 1 'x, y, z'
 2 '1/2-x, -y, 1/2+z'
 3 '-x, 1/2+y, 1/2-z'
 4 '1/2-y, -z, 1/2+x'
 5 '-y, 1/2+z, 1/2-x'
 6 '1/2-z, -x, 1/2+y'
 7 '-z, 1/2+x, 1/2-y'
 8 '1/2+x, 1/2-y, -z'
 9 '1/2+y, 1/2-z, -x'
 10 'y, z, x'
 11 '1/2+z, 1/2-x, -y'
 12 'z, x, y'

# Atomic positions taken from type-defining entry

loop_
 _atom_type_symbol
 Si
 Co
loop_
 _atom_site_label
 _atom_site_type_symbol
 _atom_site_symmetry_multiplicity
 _atom_site_Wyckoff_symbol
 _atom_site_fract_x
 _atom_site_fract_y
 _atom_site_fract_z
 _atom_site_occupancy
 Si1 Si 4 a 0.09262 0.09262 0.09262 1
 Co1 Co 4 a 0.3865 0.3865 0.3865 1


_exptl_crystal_colour                    ?
_exptl_crystal_density_meas              ?
_exptl_crystal_density_diffrn            6.56
_cell_measurement_temperature            ?
_cell_measurement_radiation              'X-rays, Cr Ka'
_cell_measurement_reflns_used            ?
_diffrn_ambient_temperature              ?
_diffrn_measurement_device               film
_diffrn_measurement_device_type          ?
_diffrn_radiation_type                   ?
_diffrn_reflns_number                    ?
_exptl_absorpt_coefficient_mu            ?
_exptl_absorpt_correction_type           ?
_computing_structure_solution            ?
_refine_ls_number_parameters             ?
_refine_ls_number_reflns                 ?
_refine_ls_R_factor_gt                   ?
_refine_ls_wR_factor_gt                  ?

# End of data set 458420

