##############################################################################
#                                                                            #
# Fe-Sb            # FeSb2                                         #  527684 #
#                                                                            #
##############################################################################
#                                                                            #
#                           Pearson's Crystal Data                           #
#      Crystal Structure Database for Inorganic Compounds (on DVD)           #
#                              Release 2022/23                               #
#                  Editors: Pierre Villars and Karin Cenzual                 #
#                                                                            #
#   Copyright (c) ASM International & Material Phases Data System (MPDS),    #
# Switzerland & National Institute for Materials Science (NIMS), Japan, 2022 #
#                   All rights reserved. Version 2022.07                     #
#                                                                            #
#   This copy of Pearson's Crystal Data is licensed to:                      #
#   University of Alberta, Chemistry Department, 1-5 Installations License         #
#                                                                            #
##############################################################################

data_527684
_audit_creation_date                     2023-07-09
_audit_creation_method
;
Pearson's Crystal Data browser
;
#_database_code_PCD                      527684
_database_code_PDF                       04-004-2927

# Entry summary

_chemical_formula_structural             'Fe Sb~2~'
_chemical_formula_sum                    'Fe Sb2'
_chemical_name_mineral                   seinajokite
_chemical_compound_source                ?
_chemical_name_structure_type            FeAs~2~,oP6,58
_chemical_formula_weight                 299.3

# Bibliographic data

_publ_section_title
;
Compounds with the Marcasite Type Crystal Structure. XIII. Structural and Magnetic Properties of Cr~t~Fe~1-t~As~2~, Cr~t~Fe~1-t~Sb~2~, Fe~1-t~Ni~t~Sb~2~
;
_journal_coden_ASTM                      ACAPCT
_journal_name_full                       'Acta Chem. Scand., Ser. A'
_journal_year                            1979
_journal_volume                          33
_journal_page_first                      469
_journal_page_last                       480
_journal_language                        English
loop_
 _publ_author_name
 _publ_author_address
'Kjekshus A.'
;
Oslo University (UiO)
Department of Chemistry
Oslo
Norway
;
'Peterzens P.G.'
;
Oslo University (UiO)
Department of Chemistry
Oslo
Norway
;
'Rakke T.'
;
Oslo University (UiO)
Department of Chemistry
Oslo
Norway
;
'Andresen A.F.'
;
Institute for Nuclear Energy (IFA)
Kjeller
Norway
;

# Standardized crystallographic data

_cell_length_a                           5.8328
_cell_length_b                           6.7356
_cell_length_c                           3.1973
_cell_angle_alpha                        90
_cell_angle_beta                         90
_cell_angle_gamma                        90
_cell_volume                             125.61
_cell_formula_units_Z                    2
_space_group_IT_number                   58
_space_group_name_H-M_alt                'P n n m'
loop_
 _space_group_symop_id
 _space_group_symop_operation_xyz
 1 'x, y, z'
 2 '1/2-x, 1/2+y, 1/2-z'
 3 '1/2-x, 1/2+y, 1/2+z'
 4 '-x, -y, -z'
 5 '-x, -y, z'
 6 '1/2+x, 1/2-y, 1/2-z'
 7 '1/2+x, 1/2-y, 1/2+z'
 8 'x, y, -z'
loop_
 _atom_type_symbol
 Sb
 Fe
loop_
 _atom_site_label
 _atom_site_type_symbol
 _atom_site_symmetry_multiplicity
 _atom_site_Wyckoff_symbol
 _atom_site_fract_x
 _atom_site_fract_y
 _atom_site_fract_z
 _atom_site_occupancy
 Sb Sb 4 g 0.1885 0.3561 0 1
 Fe Fe 2 a 0 0 0 1


_exptl_crystal_colour                    ?
_exptl_crystal_density_meas              ?
_exptl_crystal_density_diffrn            7.91
_cell_measurement_temperature            298
_cell_measurement_radiation              'X-rays, Cu Ka'
_cell_measurement_wavelength             1.5405
_pd_proc_wavelength                      1.5405
_cell_measurement_reflns_used            ?
_diffrn_ambient_temperature              298
_diffrn_measurement_device               'automatic diffractometer'
_diffrn_measurement_device_type
'Norway, Kjeller, Institute for Energy Technology, JEEP II reactor'           
_diffrn_radiation_type                   neutrons
_diffrn_radiation_wavelength             1.877
_diffrn_reflns_number                    ?
_exptl_absorpt_coefficient_mu            ?
_exptl_absorpt_correction_type           ?
_computing_structure_solution            'starting values from the literature'
_refine_ls_number_parameters             ?
_refine_ls_number_reflns                 ?
_refine_ls_R_factor_gt                   ?
_refine_ls_wR_factor_gt                  ?
_pd_proc_ls_proof_R_factor               ?
_pd_proc_ls_proof_wR_factor              ?
_refine_ls_R_I_factor                    ?

# End of data set 527684

