##############################################################################
#                                                                            #
# Pd-Si            # Pd3Si                                         #  527826 #
#                                                                            #
##############################################################################
#                                                                            #
#                           Pearson's Crystal Data                           #
#      Crystal Structure Database for Inorganic Compounds (on DVD)           #
#                              Release 2022/23                               #
#                  Editors: Pierre Villars and Karin Cenzual                 #
#                                                                            #
#   Copyright (c) ASM International & Material Phases Data System (MPDS),    #
# Switzerland & National Institute for Materials Science (NIMS), Japan, 2022 #
#                   All rights reserved. Version 2022.07                     #
#                                                                            #
#   This copy of Pearson's Crystal Data is licensed to:                      #
#   University of Alberta, Chemistry Department, 1-5 Installations License         #
#                                                                            #
##############################################################################

data_527826
_audit_creation_date                     2023-07-09
_audit_creation_method
;
Pearson's Crystal Data browser
;
#_database_code_PCD                      527826
_database_code_PDF                       04-004-3043

# Entry summary

_chemical_formula_structural             'Pd~3~ Si'
_chemical_formula_sum                    'Pd3 Si'
_chemical_name_mineral                   ?
_chemical_compound_source                ?
_chemical_name_structure_type            Fe~3~C-b,oP16,62
_chemical_formula_weight                 347.3

# Bibliographic data

_publ_section_title                      'The Crystal Structure of Pd~3~Si'
_journal_coden_ASTM                      ACSAA4
_journal_name_full                       'Acta Chem. Scand.'
_journal_year                            1960
_journal_volume                          14
_journal_page_first                      1011
_journal_page_last                       1018
_journal_language                        English
loop_
 _publ_author_name
 _publ_author_address
'Aronsson B.'
;
Uppsala University
Institute of Chemistry
Uppsala
Sweden
;
'Nylund M.A.'
;
Uppsala University
Institute of Chemistry
Uppsala
Sweden
;

# Standardized crystallographic data

_cell_length_a                           5.735
_cell_length_b                           7.555
_cell_length_c                           5.26
_cell_angle_alpha                        90
_cell_angle_beta                         90
_cell_angle_gamma                        90
_cell_volume                             227.9
_cell_formula_units_Z                    4
_space_group_IT_number                   62
_space_group_name_H-M_alt                'P n m a'
loop_
 _space_group_symop_id
 _space_group_symop_operation_xyz
 1 'x, y, z'
 2 '1/2-x, -y, 1/2+z'
 3 '1/2-x, 1/2+y, 1/2+z'
 4 '-x, -y, -z'
 5 '-x, 1/2+y, -z'
 6 '1/2+x, 1/2-y, 1/2-z'
 7 '1/2+x, y, 1/2-z'
 8 'x, 1/2-y, z'
loop_
 _atom_type_symbol
 Pd
 Si
loop_
 _atom_site_label
 _atom_site_type_symbol
 _atom_site_symmetry_multiplicity
 _atom_site_Wyckoff_symbol
 _atom_site_fract_x
 _atom_site_fract_y
 _atom_site_fract_z
 _atom_site_occupancy
 PdI Pd 8 d 0.181 0.0508 0.1783 1
 PdII Pd 4 c 0.0053 0.25 0.5964 1
 Si Si 4 c 0.3976 0.25 0.4696 1


_exptl_crystal_colour                    ?
_exptl_crystal_density_meas              ?
_exptl_crystal_density_diffrn            10.12
_cell_measurement_temperature            ?
_cell_measurement_radiation              'X-rays, Cu Ka'
_cell_measurement_reflns_used            ?
_diffrn_ambient_temperature              ?
_diffrn_measurement_device               'Weissenberg photographs'
_diffrn_measurement_device_type          ?
_diffrn_radiation_type                   'X-rays, Mo Ka'
_diffrn_reflns_number                    ?
_exptl_absorpt_coefficient_mu            ?
_exptl_absorpt_correction_type           ?
_computing_structure_solution            'Fourier synthesis'
_refine_ls_number_parameters             ?
_refine_ls_number_reflns                 ?
_refine_ls_R_factor_gt                   0.061
_refine_ls_wR_factor_gt                  ?

# Published diffraction lines

loop_
 _refln_index_h
 _refln_index_k
 _refln_index_l
 _refln_d_spacing
 _refln_intensity_meas
 1 0 1 3.879 3
 0 2 0 3.781 2
 2 0 0 2.871 2
 1 2 1 2.706 7
 0 0 2 2.629 2.5
 2 0 1 2.518 5
 1 0 2 2.39 7.5
 2 2 0 2.284 7
 1 1 2 2.279 7
 0 3 1 2.271 7
 0 2 2 2.159 5
 1 3 1 2.113 4.5
 2 2 1 2.095 6.5
 1 2 2 2.02 5
 2 0 2 1.938 2
 2 3 0 1.892 3.5
 0 4 0 1.889 3.5
 3 0 1 1.796 3
 2 3 1 1.782 2

# End of data set 527826

