##############################################################################
#                                                                            #
# Ru-Si            # Ru2Si ht                                      #  527848 #
#                                                                            #
##############################################################################
#                                                                            #
#                           Pearson's Crystal Data                           #
#      Crystal Structure Database for Inorganic Compounds (on DVD)           #
#                              Release 2022/23                               #
#                  Editors: Pierre Villars and Karin Cenzual                 #
#                                                                            #
#   Copyright (c) ASM International & Material Phases Data System (MPDS),    #
# Switzerland & National Institute for Materials Science (NIMS), Japan, 2022 #
#                   All rights reserved. Version 2022.07                     #
#                                                                            #
#   This copy of Pearson's Crystal Data is licensed to:                      #
#   University of Alberta, Chemistry Department, 1-5 Installations License         #
#                                                                            #
##############################################################################

data_527848
_audit_creation_date                     2023-07-09
_audit_creation_method
;
Pearson's Crystal Data browser
;
#_database_code_PCD                      527848
_database_code_PDF                       04-004-3062

# Entry summary

_chemical_formula_structural             'Ru~2~ Si'
_chemical_formula_sum                    'Ru2 Si'
_chemical_name_mineral                   ?
_chemical_compound_source                ?
_chemical_name_structure_type            Co~2~Si-b,oP12,62
_chemical_formula_weight                 230.2

# Bibliographic data

_publ_section_title                      'The Crystal Structure of Ru~2~Si'
_journal_coden_ASTM                      ACSAA4
_journal_name_full                       'Acta Chem. Scand.'
_journal_year                            1961
_journal_volume                          15
_journal_page_first                      1571
_journal_page_last                       1574
_journal_language                        English
loop_
 _publ_author_name
 _publ_author_address
'Aronsson B.'
;
Uppsala University
Institute of Chemistry
Uppsala
Sweden
;
'Aselius J.'
;
Uppsala University
Institute of Chemistry
Uppsala
Sweden
;

# Standardized crystallographic data

_cell_length_a                           5.279
_cell_length_b                           4.005
_cell_length_c                           7.418
_cell_angle_alpha                        90
_cell_angle_beta                         90
_cell_angle_gamma                        90
_cell_volume                             156.83
_cell_formula_units_Z                    4
_space_group_IT_number                   62
_space_group_name_H-M_alt                'P n m a'
loop_
 _space_group_symop_id
 _space_group_symop_operation_xyz
 1 'x, y, z'
 2 '1/2-x, -y, 1/2+z'
 3 '1/2-x, 1/2+y, 1/2+z'
 4 '-x, -y, -z'
 5 '-x, 1/2+y, -z'
 6 '1/2+x, 1/2-y, 1/2-z'
 7 '1/2+x, y, 1/2-z'
 8 'x, 1/2-y, z'
loop_
 _atom_type_symbol
 Ru
 Si
loop_
 _atom_site_label
 _atom_site_type_symbol
 _atom_site_symmetry_multiplicity
 _atom_site_Wyckoff_symbol
 _atom_site_fract_x
 _atom_site_fract_y
 _atom_site_fract_z
 _atom_site_occupancy
 RuII Ru 4 c 0.018 0.25 0.7119 1
 RuI Ru 4 c 0.1681 0.25 0.065 1
 Si Si 4 c 0.2036 0.25 0.3987 1


_exptl_crystal_colour                    ?
_exptl_crystal_density_meas              ?
_exptl_crystal_density_diffrn            9.75
_cell_measurement_temperature            ?
_cell_measurement_radiation              'X-rays, Cu Ka'
_cell_measurement_reflns_used            ?
_diffrn_ambient_temperature              ?
_diffrn_measurement_device               'Guinier film'
_diffrn_measurement_device_type          ?
_diffrn_radiation_type                   ?
_diffrn_reflns_number                    ?
_exptl_absorpt_coefficient_mu            ?
_exptl_absorpt_correction_type           ?
_computing_structure_solution            ?
_refine_ls_number_parameters             ?
_refine_ls_number_reflns                 ?
_refine_ls_R_factor_gt                   ?
_refine_ls_wR_factor_gt                  ?

# Published diffraction lines

loop_
 _refln_index_h
 _refln_index_k
 _refln_index_l
 _refln_d_spacing
 _refln_intensity_meas
 0 1 1 3.519 4.5
 1 0 2 3.033 3.5
 1 1 1 2.928 6.5
 1 1 2 2.42 6.5
 1 0 3 2.241 5
 2 1 0 2.204 7
 2 0 2 2.151 7
 2 1 1 2.114 8
 0 1 3 2.108 8
 0 2 0 2.003 7
 1 1 3 1.955 2
 2 1 2 1.894 2
 2 0 3 1.805 5
 1 0 4 1.748 2
 3 0 1 1.712 4.5

# End of data set 527848

