##############################################################################
#                                                                            #
# Pt-Si            # Pt6Si5 rt                                     #  528692 #
#                                                                            #
##############################################################################
#                                                                            #
#                           Pearson's Crystal Data                           #
#      Crystal Structure Database for Inorganic Compounds (on DVD)           #
#                              Release 2022/23                               #
#                  Editors: Pierre Villars and Karin Cenzual                 #
#                                                                            #
#   Copyright (c) ASM International & Material Phases Data System (MPDS),    #
# Switzerland & National Institute for Materials Science (NIMS), Japan, 2022 #
#                   All rights reserved. Version 2022.07                     #
#                                                                            #
#   This copy of Pearson's Crystal Data is licensed to:                      #
#   University of Alberta, Chemistry Department, 1-5 Installations License         #
#                                                                            #
##############################################################################

data_528692
_audit_creation_date                     2023-07-09
_audit_creation_method
;
Pearson's Crystal Data browser
;
#_database_code_PCD                      528692
_database_code_PDF                       04-004-3830

# Entry summary

_chemical_formula_structural             'Pt~6~ Si~5~'
_chemical_formula_sum                    'Pt6 Si5'
_chemical_name_mineral                   ?
_chemical_compound_source                ?
_chemical_name_structure_type            Pt~6~Si~5~,mP22,11
_chemical_formula_weight                 1311.0

# Bibliographic data

_publ_section_title
'Thin film compounds in planar Pt-Si reaction'                                
_journal_coden_ASTM                      JPCSAW
_journal_name_full                       'J. Phys. Chem. Solids'
_journal_year                            1985
_journal_volume                          46
_journal_page_first                      631
_journal_page_last                       641
_journal_language                        English
loop_
 _publ_author_name
 _publ_author_address
'Majni G.'
;
Modena and Reggio Emilia University (UNIMORE)
Dipartimento di Fisica
Modena
Italy
;
'Costato M.'
;
Modena and Reggio Emilia University (UNIMORE)
Dipartimento di Fisica
Modena
Italy
;
'Panini F.'
;
Modena and Reggio Emilia University (UNIMORE)
Dipartimento di Fisica
Modena
Italy
;
'Celotti G.'
;
National Research Council (CNR)
Istituto per la Microelettronica e Microsistemi (IMM)
Bologna
Italy
;

# Standardized crystallographic data

_cell_length_a                           6.196
_cell_length_b                           3.499
_cell_length_c                           15.462
_cell_angle_alpha                        90
_cell_angle_beta                         93.4
_cell_angle_gamma                        90
_cell_volume                             334.62
_cell_formula_units_Z                    2
_space_group_IT_number                   11
_space_group_name_H-M_alt                'P 1 21/m 1'
loop_
 _space_group_symop_id
 _space_group_symop_operation_xyz
 1 'x, y, z'
 2 '-x, -y, -z'
 3 '-x, 1/2+y, -z'
 4 'x, 1/2-y, z'

# Atomic positions taken from type-defining entry

loop_
 _atom_type_symbol
 Pt
 Si
loop_
 _atom_site_label
 _atom_site_type_symbol
 _atom_site_symmetry_multiplicity
 _atom_site_Wyckoff_symbol
 _atom_site_fract_x
 _atom_site_fract_y
 _atom_site_fract_z
 _atom_site_occupancy
 Pt1 Pt 2 e 0.005 0.25 0.781 1
 Pt2 Pt 2 e 0.194 0.25 0.498 1
 Si1 Si 2 e 0.251 0.25 0.163 1
 Si2 Si 2 e 0.252 0.25 0.926 1
 Pt3 Pt 2 e 0.287 0.25 0.322 1
 Pt4 Pt 2 e 0.340 0.25 0.674 1
 Pt5 Pt 2 e 0.527 0.25 0.076 1
 Si3 Si 2 e 0.542 0.25 0.443 1
 Si4 Si 2 e 0.682 0.25 0.213 1
 Pt6 Pt 2 e 0.852 0.25 0.949 1
 Si5 Si 2 e 0.958 0.25 0.612 1


_exptl_crystal_colour                    ?
_exptl_crystal_density_meas              ?
_exptl_crystal_density_diffrn            13.01
_cell_measurement_temperature            ?
_cell_measurement_radiation              'X-rays, Cu Ka'
_cell_measurement_wavelength             1.5418
_pd_proc_wavelength                      1.5418
_cell_measurement_reflns_used            ?
_diffrn_ambient_temperature              ?
_diffrn_measurement_device               film
_diffrn_measurement_device_type          ?
_diffrn_radiation_type                   ?
_diffrn_reflns_number                    ?
_exptl_absorpt_coefficient_mu            ?
_exptl_absorpt_correction_type           ?
_computing_structure_solution            ?
_refine_ls_number_parameters             ?
_refine_ls_number_reflns                 ?
_refine_ls_R_factor_gt                   ?
_refine_ls_wR_factor_gt                  ?

# Published diffraction lines

loop_
 _refln_index_h
 _refln_index_k
 _refln_index_l
 _refln_d_spacing
 _refln_intensity_meas
 3 0 0 5.14 16
 2 0 1 4.96 9
 3 0 1 4.07 6
 4 0 0 3.85 30
 4 0 1 3.36 29
 5 0 0 3.08 72
 1 1 -1 2.969 60
 2 1 1 2.86 6
 5 0 1 2.827 22
 2 1 -1 2.803 40
 3 1 1 2.653 10
 3 0 -2 2.574 18
 4 0 2 2.48 10
 4 0 -2 2.34 6
 0 1 2 2.312 5
 1 1 -2 2.272 21
 5 0 2 2.248 33
 7 0 0 2.204 64
 2 1 -2 2.188 19
 3 1 2 2.145 100
 6 1 0 2.072 14
 1 0 3 2.051 19
 7 0 -1 2.036 41
 2 0 3 2.014 27
 6 1 1 1.993 78
 2 0 -3 1.95 72
 8 0 0 1.924 48
 8 0 1 1.873 16
 0 1 3 1.771 38
 5 0 3 1.758 13
 0 2 0 1.75 120
 1 1 -3 1.746 25
 2 1 -3 1.704 12
 0 0 4 1.54 5
 9 1 -1 1.475 22
 3 0 -4 1.451 22
 0 1 4 1.409 6
 11 0 0 1.403 24
 1 1 -4 1.397 18
 2 1 -4 1.373 6
 10 1 -1 1.358 49
 3 1 -4 1.341 46
 10 1 2 1.31 30
 7 0 4 1.299 5
 9 0 -3 1.279 12
 11 1 2 1.224 21
 3 0 5 1.214 17
 2 0 -5 1.205 10
 12 1 -1 1.171 65
 1 1 5 1.164 22
 5 0 -5 1.121 14
 0 0 6 1.027 9

# End of data set 528692

