##############################################################################
#                                                                            #
# Pt-Si            # Pt12Si5 ht                                    #  528691 #
#                                                                            #
##############################################################################
#                                                                            #
#                           Pearson's Crystal Data                           #
#      Crystal Structure Database for Inorganic Compounds (on DVD)           #
#                              Release 2022/23                               #
#                  Editors: Pierre Villars and Karin Cenzual                 #
#                                                                            #
#   Copyright (c) ASM International & Material Phases Data System (MPDS),    #
# Switzerland & National Institute for Materials Science (NIMS), Japan, 2022 #
#                   All rights reserved. Version 2022.07                     #
#                                                                            #
#   This copy of Pearson's Crystal Data is licensed to:                      #
#   University of Alberta, Chemistry Department, 1-5 Installations License         #
#                                                                            #
##############################################################################

data_528691
_audit_creation_date                     2023-07-09
_audit_creation_method
;
Pearson's Crystal Data browser
;
#_database_code_PCD                      528691
_database_code_PDF                       04-004-3829

# Entry summary

_chemical_formula_structural             'Pt~12~ Si~5~'
_chemical_formula_sum                    'Pt12 Si5'
_chemical_name_mineral                   ?
_chemical_compound_source                ?
_chemical_name_structure_type            Pt~12~Si~5~,tP68,85
_chemical_formula_weight                 2481.5

# Bibliographic data

_publ_section_title
'Thin film compounds in planar Pt-Si reaction'                                
_journal_coden_ASTM                      JPCSAW
_journal_name_full                       'J. Phys. Chem. Solids'
_journal_year                            1985
_journal_volume                          46
_journal_page_first                      631
_journal_page_last                       641
_journal_language                        English
loop_
 _publ_author_name
 _publ_author_address
'Majni G.'
;
Modena and Reggio Emilia University (UNIMORE)
Dipartimento di Fisica
Modena
Italy
;
'Costato M.'
;
Modena and Reggio Emilia University (UNIMORE)
Dipartimento di Fisica
Modena
Italy
;
'Panini F.'
;
Modena and Reggio Emilia University (UNIMORE)
Dipartimento di Fisica
Modena
Italy
;
'Celotti G.'
;
National Research Council (CNR)
Istituto per la Microelettronica e Microsistemi (IMM)
Bologna
Italy
;

# Standardized crystallographic data

_cell_length_a                           13.404
_cell_length_b                           13.404
_cell_length_c                           5.451
_cell_angle_alpha                        90
_cell_angle_beta                         90
_cell_angle_gamma                        90
_cell_volume                             979.37
_cell_formula_units_Z                    4
_space_group_IT_number                   85
_space_group_name_H-M_alt                'P 4/n (origin choice 2)'
loop_
 _space_group_symop_id
 _space_group_symop_operation_xyz
 1 'x, y, z'
 2 '1/2-x, 1/2-y, z'
 3 '-x, -y, -z'
 4 '1/2-y, x, z'
 5 '-y, 1/2+x, -z'
 6 '1/2+x, 1/2+y, -z'
 7 '1/2+y, -x, -z'
 8 'y, 1/2-x, z'

# Atomic positions taken from type-defining entry

loop_
 _atom_type_symbol
 Pt
 Si
loop_
 _atom_site_label
 _atom_site_type_symbol
 _atom_site_symmetry_multiplicity
 _atom_site_Wyckoff_symbol
 _atom_site_fract_x
 _atom_site_fract_y
 _atom_site_fract_z
 _atom_site_occupancy
 Pt1 Pt 8 g 0.091 0.039 0.072 1
 Pt2 Pt 8 g 0.091 0.539 0.517 1
 Pt3 Pt 8 g 0.101 0.223 0.353 1
 Pt4 Pt 8 g 0.101 0.223 0.756 1
 Pt5 Pt 8 g 0.101 0.723 0.202 1
 Si1 Si 8 g 0.127 0.050 0.525 1
 Pt6 Pt 8 g 0.601 0.223 0.202 1
 Si2 Si 8 g 0.627 0.05 0.042 1
 Si3 Si 2 c 0.25 0.25 0.014 1
 Si4 Si 2 b 0.25 0.75 0.5 1


_exptl_crystal_colour                    ?
_exptl_crystal_density_meas              ?
_exptl_crystal_density_diffrn            16.83
_cell_measurement_temperature            ?
_cell_measurement_radiation              'X-rays, Cu Ka'
_cell_measurement_wavelength             1.5418
_pd_proc_wavelength                      1.5418
_cell_measurement_reflns_used            ?
_diffrn_ambient_temperature              ?
_diffrn_measurement_device               film
_diffrn_measurement_device_type          ?
_diffrn_radiation_type                   ?
_diffrn_reflns_number                    ?
_exptl_absorpt_coefficient_mu            ?
_exptl_absorpt_correction_type           ?
_computing_structure_solution            ?
_refine_ls_number_parameters             ?
_refine_ls_number_reflns                 ?
_refine_ls_R_factor_gt                   ?
_refine_ls_wR_factor_gt                  ?

# Published diffraction lines

loop_
 _refln_index_h
 _refln_index_k
 _refln_index_l
 _refln_d_spacing
 _refln_intensity_meas
 1 0 1 5.1 0.5
 1 1 1 4.81 6
 2 2 0 4.77 5
 2 1 1 4.06 4
 3 0 1 3.48 2
 3 1 1 3.38 54
 3 2 1 3.09 7
 4 2 0 3.01 83
 0 0 2 2.773 4
 3 3 1 2.758 39
 1 0 2 2.716 3
 1 1 2 2.644 0.5
 4 2 1 2.629 0.5
 2 0 2 2.564 51
 2 1 2 2.518 4
 4 3 1 2.422 2
 2 2 2 2.395 21
 5 1 1 2.381 44
 3 0 2 2.358 4
 3 1 2 2.308 0.5
 5 2 1 2.272 0.5
 6 0 0 2.243 27
 3 2 2 2.224 24
 6 2 0 2.128 100
 4 1 2 2.111 4
 3 3 2 2.077 1
 4 2 2 2.037 73
 5 4 1 1.957 0.5
 4 3 2 1.929 6
 5 1 2 1.903 0.5
 6 3 1 1.881 0.5
 6 4 0 1.864 12
 5 2 2 1.85 0.5
 0 0 3 1.835 1
 1 0 3 1.82 5
 1 1 3 1.797 27
 2 0 3 1.774 0.5
 5 3 2 1.768 1
 2 1 3 1.759 1
 6 0 2 1.742 3
 6 1 2 1.727 2
 3 0 3 1.685 34
 5 4 2 1.66 0.5
 6 5 1 1.631 6
 6 3 2 1.611 0.5
 7 4 1 1.588 1
 6 6 0 1.573 6
 7 1 2 1.555 1
 6 4 2 1.531 4
 5 0 3 1.504 8
 8 4 0 1.497 7
 5 2 3 1.468 2
 4 4 3 1.442 0.5
 9 1 1 1.424 18
 6 0 3 1.404 7
 8 5 1 1.371 6
 0 0 4 1.36 6
 1 1 4 1.34 3
 2 1 4 1.322 0.5
 7 7 1 1.313 18
 3 0 4 1.298 5
 9 2 2 1.282 5
 9 5 1 1.263 5
 3 3 4 1.246 19
 8 1 3 1.227 4
 9 4 2 1.213 4
 10 0 2 1.197 7
 8 3 3 1.184 18
 5 3 4 1.172 3
 6 0 4 1.158 1
 11 3 1 1.146 14
 9 2 3 1.132 1
 11 4 1 1.116 1
 7 0 4 1.107 1
 6 4 4 1.094 4
 1 0 5 1.086 2

# End of data set 528691

