##############################################################################
#                                                                            #
# Co-Ga            # CoGa3                                         #  530033 #
#                                                                            #
##############################################################################
#                                                                            #
#                           Pearson's Crystal Data                           #
#      Crystal Structure Database for Inorganic Compounds (on DVD)           #
#                              Release 2022/23                               #
#                  Editors: Pierre Villars and Karin Cenzual                 #
#                                                                            #
#   Copyright (c) ASM International & Material Phases Data System (MPDS),    #
# Switzerland & National Institute for Materials Science (NIMS), Japan, 2022 #
#                   All rights reserved. Version 2022.07                     #
#                                                                            #
#   This copy of Pearson's Crystal Data is licensed to:                      #
#   University of Alberta, Chemistry Department, 1-5 Installations License         #
#                                                                            #
##############################################################################

data_530033
_audit_creation_date                     2023-07-09
_audit_creation_method
;
Pearson's Crystal Data browser
;
#_database_code_PCD                      530033
_database_code_PDF                       04-004-4649

# Entry summary

_chemical_formula_structural             'Co Ga~3~'
_chemical_formula_sum                    'Co Ga3'
_chemical_name_mineral                   ?
_chemical_compound_source                ?
_chemical_name_structure_type            IrIn~3~,tP16,136
_chemical_formula_weight                 268.1

# Bibliographic data

_publ_section_title
'Concerning the crystal structure of CoGa~3~'                                 
_journal_coden_ASTM                      CHJPBS
_journal_name_full                       'Chin. J. Phys. Peking'
_journal_year                            1967
_journal_volume                          22
_journal_page_first                      701
_journal_page_last                       703
_journal_language                        English
loop_
 _publ_author_name
 _publ_author_address
'Chang T.F.'
;
Chinese Academy of Sciences
Beijing
China
;
'Liang C.K.'
;
Chinese Academy of Sciences
Beijing
China
;

# Standardized crystallographic data

_cell_length_a                           6.2365
_cell_length_b                           6.2365
_cell_length_c                           6.4347
_cell_angle_alpha                        90
_cell_angle_beta                         90
_cell_angle_gamma                        90
_cell_volume                             250.27
_cell_formula_units_Z                    4
_space_group_IT_number                   136
_space_group_name_H-M_alt                'P 42/m n m'
loop_
 _space_group_symop_id
 _space_group_symop_operation_xyz
 1 'x, y, z'
 2 '1/2-x, 1/2+y, 1/2-z'
 3 '1/2-x, 1/2+y, 1/2+z'
 4 '-x, -y, -z'
 5 '-x, -y, z'
 6 '1/2-y, 1/2+x, 1/2-z'
 7 '1/2-y, 1/2+x, 1/2+z'
 8 '-y, -x, -z'
 9 '-y, -x, z'
 10 '1/2+x, 1/2-y, 1/2-z'
 11 '1/2+x, 1/2-y, 1/2+z'
 12 'x, y, -z'
 13 '1/2+y, 1/2-x, 1/2-z'
 14 '1/2+y, 1/2-x, 1/2+z'
 15 'y, x, -z'
 16 'y, x, z'
loop_
 _atom_type_symbol
 Ga
 Co
loop_
 _atom_site_label
 _atom_site_type_symbol
 _atom_site_symmetry_multiplicity
 _atom_site_Wyckoff_symbol
 _atom_site_fract_x
 _atom_site_fract_y
 _atom_site_fract_z
 _atom_site_occupancy
 Ga2 Ga 8 j 0.343 0.343 0.264 1
 Co Co 4 f 0.157 0.157 0 1
 Ga1 Ga 4 c 0 0.5 0 1


_exptl_crystal_colour                    gray
_exptl_crystal_density_meas              ?
_exptl_crystal_density_diffrn            7.12
_cell_measurement_temperature            293
_cell_measurement_radiation              'X-rays, Co Ka'
_cell_measurement_wavelength             1.78892
_pd_proc_wavelength                      1.78892
_cell_measurement_reflns_used            ?
_diffrn_ambient_temperature              293
_diffrn_measurement_device               'Debye-Scherrer film'
_diffrn_measurement_device_type          ?
_diffrn_radiation_type                   'X-rays, Co Ka'
_diffrn_radiation_wavelength             1.78892
_diffrn_reflns_number                    ?
_exptl_absorpt_coefficient_mu            ?
_exptl_absorpt_correction_type           ?
_computing_structure_solution            'starting values from the literature'
_refine_ls_number_parameters             ?
_refine_ls_number_reflns                 ?
_refine_ls_R_factor_gt                   ?
_refine_ls_wR_factor_gt                  ?
_pd_proc_ls_proof_R_factor               ?
_pd_proc_ls_proof_wR_factor              ?
_refine_ls_R_I_factor                    ?

# Published diffraction lines

loop_
 _refln_index_h
 _refln_index_k
 _refln_index_l
 _refln_d_spacing
 _refln_intensity_meas
 1 0 1 4.494 6.0
 1 1 1 3.643 4.2
 2 1 0 2.79 7.2
 1 1 2 2.6 12.4
 2 1 1 2.559 0.3
 2 0 2 2.241 10.3
 2 2 0 2.206 4.2
 2 1 2 2.109 37.2
 2 2 1 2.087 0.6
 1 0 3 2.028 0.5
 3 0 1 1.977 21.5
 1 1 3 1.93 3.0
 2 2 2 1.82 4.2
 3 2 0 1.729 0.5
 3 1 2 1.683 1.0
 3 2 1 1.67 0.6
 0 0 4 1.609 6.2
 4 0 0 1.559 2.2
 2 2 3 1.539 2.1
 3 2 2 1.524 2.9
 4 1 0 1.51 0.6
 3 0 3 1.491 1.4
 3 3 0 1.47 4.0
 4 0 2 1.403 6.0
 4 2 0 1.393 8.6
 4 1 2 1.369 7.2
 3 3 2 1.337 6.0
 2 2 4 1.299 4.2
 4 2 2 1.279 2.4
 1 0 5 1.26 0.7
 3 1 4 1.246 14.4
 4 1 3 1.236 0.7
 5 0 1 1.223 2.9
 5 1 1 1.201 1.7
 3 2 4 1.178 0.7
 4 2 3 1.169 2.1
 5 2 0 1.157 2.2
 5 1 2 1.142 3.5
 4 0 4 1.119 2.4
 4 4 0 1.102 4.2
 3 0 5 1.094 1.2
 5 2 2 1.089 14.9
 4 4 1 1.086 3.5
 4 3 3 1.078 1.2
 5 3 0 1.069 2.2
 5 1 3 1.062 2.4
 4 2 4 1.053 7.2
 1 1 6 1.042 1.7
 6 0 0 1.039 7.7
 3 2 5 1.032 0.7
 5 3 2 1.014 5.0
 6 1 1 1.012 2.4
 2 1 6 1.001 21.0
 4 4 3 0.981 1.0
 6 1 2 0.976 4.3
 5 4 0 0.974 4.2
 5 1 4 0.973 1.9
 2 2 6 0.964 2.1
 6 2 2 0.943 9.0
 5 2 4 0.94 7.4
 5 4 2 0.932 15.3
 6 1 3 0.925 1.3
 6 3 1 0.92 4.3
 3 2 6 0.912 2.0
 1 0 7 0.91 20.9
 1 1 7 0.901 2.0

# End of data set 530033

