##############################################################################
#                                                                            #
# Ga-Ni            # Ni13Ga9 rt                                    #  530431 #
#                                                                            #
##############################################################################
#                                                                            #
#                           Pearson's Crystal Data                           #
#      Crystal Structure Database for Inorganic Compounds (on DVD)           #
#                              Release 2022/23                               #
#                  Editors: Pierre Villars and Karin Cenzual                 #
#                                                                            #
#   Copyright (c) ASM International & Material Phases Data System (MPDS),    #
# Switzerland & National Institute for Materials Science (NIMS), Japan, 2022 #
#                   All rights reserved. Version 2022.07                     #
#                                                                            #
#   This copy of Pearson's Crystal Data is licensed to:                      #
#   University of Alberta, Chemistry Department, 1-5 Installations License         #
#                                                                            #
##############################################################################

data_530431
_audit_creation_date                     2023-07-09
_audit_creation_method
;
Pearson's Crystal Data browser
;
#_database_code_PCD                      530431
_database_code_PDF                       04-004-5002

# Entry summary

_chemical_formula_structural             'Ni~13~ Ga~9~'
_chemical_formula_sum                    'Ga9 Ni13'
_chemical_name_mineral                   ?
_chemical_compound_source                ?
_chemical_name_structure_type            Ni~13~Ga~9~,mS44,12
_chemical_formula_weight                 1390.6

# Bibliographic data

_publ_section_title
;
Metallurgical study of Ni/GaAs contacts. I. Experimental determination of the solid portion of the Ni-Ga-As ternary-phase diagram
;
_journal_coden_ASTM                      JAPIAU
_journal_name_full                       'J. Appl. Phys.'
_journal_year                            1989
_journal_volume                          66
_journal_page_first                      2122
_journal_page_last                       2128
_journal_language                        English
loop_
 _publ_author_name
 _publ_author_address
'Guerin R.'
;
Centre National d'Etudes des Telecommunications (CNET)
Lannion
France
;
'Guivarc'h A.'
;
Centre National d'Etudes des Telecommunications (CNET)
Lannion
France
;

# Standardized crystallographic data

_cell_length_a                           9.9344
_cell_length_b                           7.88
_cell_length_c                           8.489
_cell_angle_alpha                        90
_cell_angle_beta                         125.513
_cell_angle_gamma                        90
_cell_volume                             540.93
_cell_formula_units_Z                    2
_space_group_IT_number                   12
_space_group_name_H-M_alt                'C 1 2/m 1'
loop_
 _space_group_symop_id
 _space_group_symop_operation_xyz
 1 'x, y, z'
 2 '-x, -y, -z'
 3 '-x, y, -z'
 4 'x, -y, z'
 5 '1/2+x, 1/2+y, z'
 6 '1/2-x, 1/2-y, -z'
 7 '1/2-x, 1/2+y, -z'
 8 '1/2+x, 1/2-y, z'

# Atomic positions taken from type-defining entry

loop_
 _atom_type_symbol
 Ni
 Ga
loop_
 _atom_site_label
 _atom_site_type_symbol
 _atom_site_symmetry_multiplicity
 _atom_site_Wyckoff_symbol
 _atom_site_fract_x
 _atom_site_fract_y
 _atom_site_fract_z
 _atom_site_occupancy
 Ni1 Ni 8 j 0.193 0.251 0.155 1
 Ga1 Ga 8 j 0.457 0.273 0.182 1
 Ga2 Ga 4 i 0.172 0 0.604 1
 Ni2 Ni 4 i 0.248 0 0.006 1
 Ga3 Ga 4 i 0.299 0 0.336 1
 Ni3 Ni 4 i 0.555 0 0.335 1
 Ni4 Ni 4 h 0 0.248 0.5 1
 Ni5 Ni 4 f 0.25 0.25 0.5 1
 Ga4 Ga 2 b 0 0.5 0 1
 Ni6 Ni 2 a 0 0 0 1


_exptl_crystal_colour                    ?
_exptl_crystal_density_meas              ?
_exptl_crystal_density_diffrn            8.54
_cell_measurement_temperature            ?
_cell_measurement_radiation              'X-rays, Cu Ka1'
_cell_measurement_wavelength             1.54051
_pd_proc_wavelength                      1.54051
_cell_measurement_reflns_used            ?
_diffrn_ambient_temperature              ?
_diffrn_measurement_device               'automatic diffractometer'
_diffrn_measurement_device_type          ?
_diffrn_radiation_type                   ?
_diffrn_reflns_number                    ?
_exptl_absorpt_coefficient_mu            ?
_exptl_absorpt_correction_type           ?
_computing_structure_solution            ?
_refine_ls_number_parameters             ?
_refine_ls_number_reflns                 ?
_refine_ls_R_factor_gt                   ?
_refine_ls_wR_factor_gt                  ?

# End of data set 530431

