##############################################################################
#                                                                            #
# Fe-Sb            # Fe1.27Sb                                      #  533902 #
#                                                                            #
##############################################################################
#                                                                            #
#                           Pearson's Crystal Data                           #
#      Crystal Structure Database for Inorganic Compounds (on DVD)           #
#                              Release 2022/23                               #
#                  Editors: Pierre Villars and Karin Cenzual                 #
#                                                                            #
#   Copyright (c) ASM International & Material Phases Data System (MPDS),    #
# Switzerland & National Institute for Materials Science (NIMS), Japan, 2022 #
#                   All rights reserved. Version 2022.07                     #
#                                                                            #
#   This copy of Pearson's Crystal Data is licensed to:                      #
#   University of Alberta, Chemistry Department, 1-5 Installations License         #
#                                                                            #
##############################################################################

data_533902
_audit_creation_date                     2023-07-09
_audit_creation_method
;
Pearson's Crystal Data browser
;
#_database_code_PCD                      533902
_database_code_PDF                       04-004-8094

# Entry summary

_chemical_formula_structural             'Fe~1.14~ Sb'
_chemical_formula_sum                    'Fe1.14 Sb'
_chemical_name_mineral                   ?
_chemical_compound_source                ?
_chemical_name_structure_type            Co~1.75~Ge,hP6,194
_chemical_formula_weight                 185.4

# Bibliographic data

_publ_section_title
'Investigation of the Fe~1+x~Sb system'                                       
_journal_coden_ASTM                      PRBMDO
_journal_name_full
'Phys. Rev. B: Condens. Matter Mater. Phys.'                                  
_journal_year                            1985
_journal_volume                          32
_journal_page_first                      69
_journal_page_last                       75
_journal_language                        English
loop_
 _publ_author_name
 _publ_author_address
'Kumar R.'
;
Gurukul Kangri University (Vishwavidyalaya)
Department of Physics
Haridwar / Uttarakhand
India
;
'Harchand K.S.'
;
Punjab Agricultural University (PAU)
Department of Physics
Ludhiana / Punjab
India
;
'Vishwamittar'
;
Panjab University
Department of Physics
Chandigarh / Chandigarh
India
;
'Chandra K.'
;
Indian Institute of Technology Roorkee (IIT Roorkee)
Department of Physics
Roorkee / Uttarakhand
India
;

# Standardized crystallographic data

_cell_length_a                           4.07
_cell_length_b                           4.07
_cell_length_c                           5.13
_cell_angle_alpha                        90
_cell_angle_beta                         90
_cell_angle_gamma                        120
_cell_volume                             73.59
_cell_formula_units_Z                    2
_space_group_IT_number                   194
_space_group_name_H-M_alt                'P 63/m m c'
loop_
 _space_group_symop_id
 _space_group_symop_operation_xyz
 1 'x, y, z'
 2 '-x+y, -x, 1/2-z'
 3 '-x+y, -x, z'
 4 '-x+y, y, 1/2-z'
 5 '-x+y, y, z'
 6 '-x, -x+y, -z'
 7 '-x, -x+y, 1/2+z'
 8 '-x, -y, -z'
 9 '-x, -y, 1/2+z'
 10 '-y, -x, 1/2-z'
 11 '-y, -x, z'
 12 '-y, x-y, 1/2-z'
 13 '-y, x-y, z'
 14 'x, x-y, 1/2-z'
 15 'x, x-y, z'
 16 'x, y, 1/2-z'
 17 'x-y, -y, -z'
 18 'x-y, -y, 1/2+z'
 19 'x-y, x, -z'
 20 'x-y, x, 1/2+z'
 21 'y, -x+y, -z'
 22 'y, -x+y, 1/2+z'
 23 'y, x, -z'
 24 'y, x, 1/2+z'
loop_
 _atom_type_symbol
 Fe
 Sb
loop_
 _atom_site_label
 _atom_site_type_symbol
 _atom_site_symmetry_multiplicity
 _atom_site_Wyckoff_symbol
 _atom_site_fract_x
 _atom_site_fract_y
 _atom_site_fract_z
 _atom_site_occupancy
 Fe2 Fe 2 d 0.333333 0.666667 0.75 0.14
 Sb Sb 2 c 0.333333 0.666667 0.25 1
 Fe1 Fe 2 a 0 0 0 1


_exptl_crystal_colour                    ?
_exptl_crystal_density_meas              ?
_exptl_crystal_density_diffrn            8.37
_cell_measurement_temperature            298
_cell_measurement_radiation              X-rays
_cell_measurement_reflns_used            ?
_diffrn_ambient_temperature              298
_diffrn_measurement_device               'automatic diffractometer'
_diffrn_measurement_device_type          'Philips PW1140'
_diffrn_radiation_type                   X-rays
_diffrn_reflns_number                    ?
_exptl_absorpt_coefficient_mu            ?
_exptl_absorpt_correction_type           ?
_computing_structure_solution            'starting values from the literature'
_refine_ls_number_parameters             ?
_refine_ls_number_reflns                 ?
_refine_ls_R_factor_gt                   ?
_refine_ls_wR_factor_gt                  ?
_pd_proc_ls_proof_R_factor               ?
_pd_proc_ls_proof_wR_factor              ?
_refine_ls_R_I_factor                    ?

# Published diffraction lines

loop_
 _refln_index_h
 _refln_index_k
 _refln_index_l
 _refln_d_spacing
 _refln_intensity_meas
 1 0 1 2.905 100
 0 0 2 2.561 10
 1 0 2 2.074 55
 1 1 0 2.038 65
 2 0 1 1.665 20
 1 1 2 1.594 10
 1 0 3 1.538 15
 2 0 2 1.453 15
 1 2 1 1.29 12

# End of data set 533902

