##############################################################################
#                                                                            #
# Ga-Pt            # Pt2Ga3                                        #  534747 #
#                                                                            #
##############################################################################
#                                                                            #
#                           Pearson's Crystal Data                           #
#      Crystal Structure Database for Inorganic Compounds (on DVD)           #
#                              Release 2022/23                               #
#                  Editors: Pierre Villars and Karin Cenzual                 #
#                                                                            #
#   Copyright (c) ASM International & Material Phases Data System (MPDS),    #
# Switzerland & National Institute for Materials Science (NIMS), Japan, 2022 #
#                   All rights reserved. Version 2022.07                     #
#                                                                            #
#   This copy of Pearson's Crystal Data is licensed to:                      #
#   University of Alberta, Chemistry Department, 1-5 Installations License         #
#                                                                            #
##############################################################################

data_534747
_audit_creation_date                     2023-07-09
_audit_creation_method
;
Pearson's Crystal Data browser
;
#_database_code_PCD                      534747
_database_code_PDF                       04-004-8802

# Entry summary

_chemical_formula_structural             'Pt~2~ Ga~3~'
_chemical_formula_sum                    'Ga3 Pt2'
_chemical_name_mineral                   ?
_chemical_compound_source                ?
_chemical_name_structure_type            Ni~2~Al~3~,hP5,164
_chemical_formula_weight                 599.3

# Bibliographic data

_publ_section_title
;
Kristallchemie des In und Ga in Legierungen mit einigen Ubergangselementen (Ni, Pd, Pt, Cu, Ag und Au)
;
_journal_coden_ASTM                      ZENAAU
_journal_name_full                       'Z. Naturforsch. A'
_journal_year                            1947
_journal_volume                          2
_journal_page_first                      177
_journal_page_last                       183
_journal_language                        German
loop_
 _publ_author_name
 _publ_author_address
'Hellner E.'
;
Marburg Philipps University
Institut fur Mineralogie, Petrologie und Kristallographie
Marburg
Germany
;
'Laves F.'
;
Marburg Philipps University
Institut fur Mineralogie, Petrologie und Kristallographie
Marburg
Germany
;

# Standardized crystallographic data

_cell_length_a                           4.22
_cell_length_b                           4.22
_cell_length_c                           5.17
_cell_angle_alpha                        90
_cell_angle_beta                         90
_cell_angle_gamma                        120
_cell_volume                             79.73
_cell_formula_units_Z                    1
_space_group_IT_number                   164
_space_group_name_H-M_alt                'P -3 m 1'
loop_
 _space_group_symop_id
 _space_group_symop_operation_xyz
 1 'x, y, z'
 2 '-x+y, -x, z'
 3 '-x+y, y, z'
 4 '-x, -x+y, -z'
 5 '-x, -y, -z'
 6 '-y, -x, z'
 7 '-y, x-y, z'
 8 'x, x-y, z'
 9 'x-y, -y, -z'
 10 'x-y, x, -z'
 11 'y, -x+y, -z'
 12 'y, x, -z'
loop_
 _atom_type_symbol
 Pt
 Ga
loop_
 _atom_site_label
 _atom_site_type_symbol
 _atom_site_symmetry_multiplicity
 _atom_site_Wyckoff_symbol
 _atom_site_fract_x
 _atom_site_fract_y
 _atom_site_fract_z
 _atom_site_occupancy
 Pt Pt 2 d 0.333333 0.666667 0.16 1
 Ga2 Ga 2 d 0.333333 0.666667 0.633 1
 Ga1 Ga 1 a 0 0 0 1


_exptl_crystal_colour                    ?
_exptl_crystal_density_meas              ?
_exptl_crystal_density_diffrn            12.48
_cell_measurement_temperature            ?
_cell_measurement_radiation              X-rays
_cell_measurement_reflns_used            ?
_diffrn_ambient_temperature              ?
_diffrn_measurement_device               film
_diffrn_measurement_device_type          ?
_diffrn_radiation_type                   X-rays
_diffrn_reflns_number                    ?
_exptl_absorpt_coefficient_mu            ?
_exptl_absorpt_correction_type           ?
_computing_structure_solution            'starting values from the literature'
_refine_ls_number_parameters             ?
_refine_ls_number_reflns                 ?
_refine_ls_R_factor_gt                   ?
_refine_ls_wR_factor_gt                  ?
_pd_proc_ls_proof_R_factor               ?
_pd_proc_ls_proof_wR_factor              ?
_refine_ls_R_I_factor                    ?

# End of data set 534747

