##############################################################################
#                                                                            #
# Os-Si            # OsSi2 rt                                      #  555792 #
#                                                                            #
##############################################################################
#                                                                            #
#                           Pearson's Crystal Data                           #
#      Crystal Structure Database for Inorganic Compounds (on DVD)           #
#                              Release 2022/23                               #
#                  Editors: Pierre Villars and Karin Cenzual                 #
#                                                                            #
#   Copyright (c) ASM International & Material Phases Data System (MPDS),    #
# Switzerland & National Institute for Materials Science (NIMS), Japan, 2022 #
#                   All rights reserved. Version 2022.07                     #
#                                                                            #
#   This copy of Pearson's Crystal Data is licensed to:                      #
#   University of Alberta, Chemistry Department, 1-5 Installations License         #
#                                                                            #
##############################################################################

data_555792
_audit_creation_date                     2023-07-09
_audit_creation_method
;
Pearson's Crystal Data browser
;
#_database_code_PCD                      555792
_database_code_PDF                       04-006-4485

# Entry summary

_chemical_formula_structural             'Os Si~2~'
_chemical_formula_sum                    'Os Si2'
_chemical_name_mineral                   ?
_chemical_compound_source                ?
_chemical_name_structure_type            FeSi~2~,oS48,64
_chemical_formula_weight                 246.4

# Bibliographic data

_publ_section_title
;
Silicides of ruthenium and osmium: Thin film reactions, diffusion, nucleation, and stability
;
_journal_coden_ASTM                      JAPIAU
_journal_name_full                       'J. Appl. Phys.'
_journal_year                            1982
_journal_volume                          53
_journal_page_first                      4866
_journal_page_last                       4883
_journal_language                        English
loop_
 _publ_author_name
 _publ_author_address
'Petersson C.S.'
;
International Business Machines Corp. (IBM)
Thomas J. Watson Research Center
Yorktown Heights
U.S.A. New York
;
'Baglin J.E.E.'
;
International Business Machines Corp. (IBM)
Thomas J. Watson Research Center
Yorktown Heights
U.S.A. New York
;
'Dempsey J.J.'
;
International Business Machines Corp. (IBM)
Thomas J. Watson Research Center
Yorktown Heights
U.S.A. New York
;
'D'Heurle F.M.'
;
International Business Machines Corp. (IBM)
Thomas J. Watson Research Center
Yorktown Heights
U.S.A. New York
;
'La Placa S.J.'
;
International Business Machines Corp. (IBM)
Thomas J. Watson Research Center
Yorktown Heights
U.S.A. New York
;

# Standardized crystallographic data

_cell_length_a                           10.15
_cell_length_b                           8.117
_cell_length_c                           8.223
_cell_angle_alpha                        90
_cell_angle_beta                         90
_cell_angle_gamma                        90
_cell_volume                             677.5
_cell_formula_units_Z                    16
_space_group_IT_number                   64
_space_group_name_H-M_alt                'C m c e'
loop_
 _space_group_symop_id
 _space_group_symop_operation_xyz
 1 'x, y, z'
 2 '-x, 1/2-y, 1/2+z'
 3 '-x, -y, -z'
 4 '-x, 1/2+y, 1/2-z'
 5 '-x, y, z'
 6 'x, 1/2-y, 1/2+z'
 7 'x, -y, -z'
 8 'x, 1/2+y, 1/2-z'
 9 '1/2+x, 1/2+y, z'
 10 '1/2-x, 1-y, 1/2+z'
 11 '1/2-x, 1/2-y, -z'
 12 '1/2-x, 1+y, 1/2-z'
 13 '1/2-x, 1/2+y, z'
 14 '1/2+x, 1-y, 1/2+z'
 15 '1/2+x, 1/2-y, -z'
 16 '1/2+x, 1+y, 1/2-z'

# Atomic positions taken from type-defining entry

loop_
 _atom_type_symbol
 Si
 Os
loop_
 _atom_site_label
 _atom_site_type_symbol
 _atom_site_symmetry_multiplicity
 _atom_site_Wyckoff_symbol
 _atom_site_fract_x
 _atom_site_fract_y
 _atom_site_fract_z
 _atom_site_occupancy
 Si1 Si 16 g 0.1273 0.0450 0.2739 1
 Si2 Si 16 g 0.1282 0.2746 0.0512 1
 Os1 Os 8 f 0 0.3086 0.3149 1
 Os2 Os 8 d 0.2146 0 0 1


_exptl_crystal_colour                    ?
_exptl_crystal_density_meas              ?
_exptl_crystal_density_diffrn            9.66
_cell_measurement_temperature            ?
_cell_measurement_radiation              'X-rays, Cu Ka'
_cell_measurement_reflns_used            ?
_diffrn_ambient_temperature              ?
_diffrn_measurement_device               film
_diffrn_measurement_device_type          ?
_diffrn_radiation_type                   ?
_diffrn_reflns_number                    ?
_exptl_absorpt_coefficient_mu            ?
_exptl_absorpt_correction_type           ?
_computing_structure_solution            ?
_refine_ls_number_parameters             ?
_refine_ls_number_reflns                 ?
_refine_ls_R_factor_gt                   ?
_refine_ls_wR_factor_gt                  ?

# End of data set 555792

