##############################################################################
#                                                                            #
# Ce-Ga-Ni         # CeNi7.2Ga5.8                                  # 1535137 #
#                                                                            #
##############################################################################
#                                                                            #
#                           Pearson's Crystal Data                           #
#      Crystal Structure Database for Inorganic Compounds (on DVD)           #
#                              Release 2023/24                               #
#                  Editors: Pierre Villars and Karin Cenzual                 #
#                                                                            #
#   Copyright (c) ASM International & Material Phases Data System (MPDS),    #
# Switzerland & National Institute for Materials Science (NIMS), Japan, 2023 #
#                   All rights reserved. Version 2023.07                     #
#                                                                            #
#   This copy of Pearson's Crystal Data is licensed to:                      #
#   Hunter College - City University of New York                             #
#                                                                            #
##############################################################################

data_1535137
_audit_creation_date                     2024-02-24
_audit_creation_method
;
Pearson's Crystal Data browser
;
#_database_code_PCD                      1535137
_database_code_PDF                       04-025-5393

# Entry summary

_chemical_formula_structural             'Ce Ni~7.25~ Ga~5.75~'
_chemical_formula_sum                    'Ce Ga6.62 Ni6.38'
_chemical_name_mineral                   ?
_chemical_compound_source                ?
_chemical_name_structure_type            LaNi~7~In~6~,oI56,72
_chemical_formula_weight                 966.6

# Bibliographic data

_publ_section_title
;
Compositional evolution of the NaZn~13~ structure motif in the systems La-Ni-Ga and Ce-Ni-Ga
;
_journal_coden_ASTM                      DTARAF
_journal_name_full                       'Dalton Trans.'
_journal_year                            2018
_journal_volume                          47
_journal_page_first                      12951
_journal_page_last                       12963
_journal_language                        English
loop_
 _publ_author_name
 _publ_author_address
'Prots Y.'
;
Max Planck Society (MPG)
Max Planck Institut (MPI) fur Chemische Physik Fester Stoffe
Dresden
Germany
;
'Vasylechko L.'
;
Lviv Polytechnic National University
Lviv
Ukraine
;
'Carrillo Cabrera W.'
;
Max Planck Society (MPG)
Max Planck Institut (MPI) fur Chemische Physik Fester Stoffe
Dresden
Germany
;
'Drathen C.'
;
European Synchrotron Radiation Facility (ESRF)
Grenoble
France
;
'Coduri M.'
;
European Synchrotron Radiation Facility (ESRF)
Grenoble
France
;
'Kaczorowski D.'
;
Polish Academy of Sciences (PAN)
W. Trzebiatowski Institute of Low Temperature and Structure Research
Wroclaw
Poland
;
'Burkhardt U.'
;
Max Planck Society (MPG)
Max Planck Institut (MPI) fur Chemische Physik Fester Stoffe
Dresden
Germany
;
'Grin Y.'
;
Max Planck Society (MPG)
Max Planck Institut (MPI) fur Chemische Physik Fester Stoffe
Dresden
Germany
;

# Standardized crystallographic data

_cell_length_a                           7.7833
_cell_length_b                           8.452
_cell_length_c                           11.9023
_cell_angle_alpha                        90
_cell_angle_beta                         90
_cell_angle_gamma                        90
_cell_volume                             783
_cell_formula_units_Z                    4
_space_group_IT_number                   72
_space_group_name_H-M_alt                'I b a m'
loop_
 _space_group_symop_id
 _space_group_symop_operation_xyz
 1 'x, y, z'
 2 '-x, -y, -z'
 3 '-x, -y, z'
 4 '-x, y, 1/2-z'
 5 '-x, y, 1/2+z'
 6 'x, -y, 1/2-z'
 7 'x, -y, 1/2+z'
 8 'x, y, -z'
 9 '1/2+x, 1/2+y, 1/2+z'
 10 '1/2-x, 1/2-y, 1/2-z'
 11 '1/2-x, 1/2-y, 1/2+z'
 12 '1/2-x, 1/2+y, 1-z'
 13 '1/2-x, 1/2+y, 1+z'
 14 '1/2+x, 1/2-y, 1-z'
 15 '1/2+x, 1/2-y, 1+z'
 16 '1/2+x, 1/2+y, 1/2-z'
loop_
 _atom_type_symbol
 Ni
 Ga
 Ce
loop_
 _atom_site_label
 _atom_site_type_symbol
 _atom_site_symmetry_multiplicity
 _atom_site_Wyckoff_symbol
 _atom_site_fract_x
 _atom_site_fract_y
 _atom_site_fract_z
 _atom_site_occupancy
 Ni3A Ni 16 k 0.1274 0.107 0.1759 0.79(5)
 Ga3B Ga 16 k 0.1274 0.107 0.1759 0.21(5)
 Ga4 Ga 16 k 0.1706 0.1836 0.3697 1
 Ni21 Ni 8 j 0.0771 0.279 0 1
 Ga22A Ga 8 j 0.3159 0.0539 0 0.89(7)
 Ga22B Ni 8 j 0.3159 0.0539 0 0.11(2)
 Ni1 Ni 4 c 0 0 0 1
 Ce Ce 4 b 0.5 0 0.25 1


_exptl_crystal_colour                    ?
_exptl_crystal_density_meas              ?
_exptl_crystal_density_diffrn            8.20
_cell_measurement_temperature            ?
_cell_measurement_radiation              ?
_cell_measurement_reflns_used            ?
_diffrn_ambient_temperature              ?
_diffrn_measurement_device               'automatic diffractometer'
_diffrn_measurement_device_type
'France, Grenoble, European Synchrotron Radiation Facility ESRF, ID22'        
_diffrn_radiation_type                   'X-rays, synchrotron'
_diffrn_reflns_number                    ?
_exptl_absorpt_coefficient_mu            ?
_exptl_absorpt_correction_type           ?
_computing_structure_solution
'starting values derived from related structure'                              
_refine_ls_number_parameters             ?
_refine_ls_number_reflns                 ?
_refine_ls_R_factor_gt                   ?
_refine_ls_wR_factor_gt                  ?
_pd_proc_ls_proof_R_factor               0.149
_pd_proc_ls_proof_wR_factor              ?
_refine_ls_R_I_factor                    0.043

# End of data set 1535137

