##############################################################################
#                                                                            #
# Pd-Sb            # Pd8Sb3 rt                                     # 1503204 #
#                                                                            #
##############################################################################
#                                                                            #
#                           Pearson's Crystal Data                           #
#      Crystal Structure Database for Inorganic Compounds (on DVD)           #
#                              Release 2022/23                               #
#                  Editors: Pierre Villars and Karin Cenzual                 #
#                                                                            #
#   Copyright (c) ASM International & Material Phases Data System (MPDS),    #
# Switzerland & National Institute for Materials Science (NIMS), Japan, 2022 #
#                   All rights reserved. Version 2022.07                     #
#                                                                            #
#   This copy of Pearson's Crystal Data is licensed to:                      #
#   University of Alberta, Chemistry Department, 1-5 Installations License         #
#                                                                            #
##############################################################################

data_1503204
_audit_creation_date                     2023-07-09
_audit_creation_method
;
Pearson's Crystal Data browser
;
#_database_code_PCD                      1503204
_database_code_PDF                       04-009-6496

# Entry summary

_chemical_formula_structural             'Pd~8~ Sb~3~'
_chemical_formula_sum                    'Pd8 Sb3'
_chemical_name_mineral                   ?
_chemical_compound_source                ?
_chemical_name_structure_type            Yb~8~In~3~,hR132,167
_chemical_formula_weight                 1216.4

# Bibliographic data

_publ_section_title
'The Centrosymmetric-Noncentrosymmetric Ambiguity: Some More Examples'        
_journal_coden_ASTM                      ACACEQ
_journal_name_full                       'Acta Crystallogr. A'
_journal_year                            1994
_journal_volume                          50
_journal_page_first                      450
_journal_page_last                       455
_journal_language                        English
loop_
 _publ_author_name
 _publ_author_address
'Marsh R.E.'
;
California Institute of Technology (Caltech)
Beckman Institute
Pasadena
U.S.A. California
;

# Standardized crystallographic data

_cell_length_a                           7.6152
_cell_length_b                           7.6152
_cell_length_c                           43.032
_cell_angle_alpha                        90
_cell_angle_beta                         90
_cell_angle_gamma                        120
_cell_volume                             2161.1
_cell_formula_units_Z                    12
_space_group_IT_number                   167
_space_group_name_H-M_alt                'R -3 c h'
loop_
 _space_group_symop_id
 _space_group_symop_operation_xyz
 1 'x, y, z'
 2 '-x+y, -x, z'
 3 '-x+y, y, 1/2+z'
 4 '-x, -x+y, 1/2-z'
 5 '-x, -y, -z'
 6 '-y, -x, 1/2+z'
 7 '-y, x-y, z'
 8 'x, x-y, 1/2+z'
 9 'x-y, -y, 1/2-z'
 10 'x-y, x, -z'
 11 'y, -x+y, -z'
 12 'y, x, 1/2-z'
 13 '2/3+x, 1/3+y, 1/3+z'
 14 '2/3-x+y, 1/3-x, 1/3+z'
 15 '2/3-x+y, 1/3+y, 5/6+z'
 16 '2/3-x, 1/3-x+y, 5/6-z'
 17 '2/3-x, 1/3-y, 1/3-z'
 18 '2/3-y, 1/3-x, 5/6+z'
 19 '2/3-y, 1/3+x-y, 1/3+z'
 20 '2/3+x, 1/3+x-y, 5/6+z'
 21 '2/3+x-y, 1/3-y, 5/6-z'
 22 '2/3+x-y, 1/3+x, 1/3-z'
 23 '2/3+y, 1/3-x+y, 1/3-z'
 24 '2/3+y, 1/3+x, 5/6-z'
 25 '1/3+x, 2/3+y, 2/3+z'
 26 '1/3-x+y, 2/3-x, 2/3+z'
 27 '1/3-x+y, 2/3+y, 1.16667+z'
 28 '1/3-x, 2/3-x+y, 1.16667-z'
 29 '1/3-x, 2/3-y, 2/3-z'
 30 '1/3-y, 2/3-x, 1.16667+z'
 31 '1/3-y, 2/3+x-y, 2/3+z'
 32 '1/3+x, 2/3+x-y, 1.16667+z'
 33 '1/3+x-y, 2/3-y, 1.16667-z'
 34 '1/3+x-y, 2/3+x, 2/3-z'
 35 '1/3+y, 2/3-x+y, 2/3-z'
 36 '1/3+y, 2/3+x, 1.16667-z'
loop_
 _atom_type_symbol
 Pd
 Sb
loop_
 _atom_site_label
 _atom_site_type_symbol
 _atom_site_symmetry_multiplicity
 _atom_site_Wyckoff_symbol
 _atom_site_fract_x
 _atom_site_fract_y
 _atom_site_fract_z
 _atom_site_occupancy
 Pd1 Pd 36 f 0.00123 0.26387 0.11447 1
 Pd2 Pd 36 f 0.02393 0.32627 0.18417 1
 Sb1 Sb 18 e 0.3189 0 0.25 1
 Pd4 Pd 12 c 0 0 0.062 1
 Sb2 Sb 12 c 0 0 0.157 1
 Pd3 Pd 12 c 0 0 0.2188 1
 Sb3 Sb 6 b 0 0 0 1


_exptl_crystal_colour                    ?
_exptl_crystal_density_meas              ?
_exptl_crystal_density_diffrn            11.22
_cell_measurement_temperature            ?
_cell_measurement_radiation              ?
_cell_measurement_reflns_used            ?
_diffrn_ambient_temperature              ?
_diffrn_measurement_device               ?
_diffrn_measurement_device_type          ?
_diffrn_radiation_type                   ?
_diffrn_reflns_number                    ?
_exptl_absorpt_coefficient_mu            ?
_exptl_absorpt_correction_type           ?
_computing_structure_solution            'starting values from the literature'
_refine_ls_number_parameters             ?
_refine_ls_number_reflns                 533
_refine_ls_R_factor_gt                   0.126
_refine_ls_wR_factor_gt                  ?

# End of data set 1503204

