##############################################################################
#                                                                            #
# Pd-Sb            # Pd8Sb3 rt                                     #  251281 #
#                                                                            #
##############################################################################
#                                                                            #
#                           Pearson's Crystal Data                           #
#      Crystal Structure Database for Inorganic Compounds (on DVD)           #
#                              Release 2022/23                               #
#                  Editors: Pierre Villars and Karin Cenzual                 #
#                                                                            #
#   Copyright (c) ASM International & Material Phases Data System (MPDS),    #
# Switzerland & National Institute for Materials Science (NIMS), Japan, 2022 #
#                   All rights reserved. Version 2022.07                     #
#                                                                            #
#   This copy of Pearson's Crystal Data is licensed to:                      #
#   University of Alberta, Chemistry Department, 1-5 Installations License         #
#                                                                            #
##############################################################################

data_251281
_audit_creation_date                     2023-07-09
_audit_creation_method
;
Pearson's Crystal Data browser
;
#_database_code_PCD                      251281
_database_code_PDF                       04-001-0693

# Entry summary

_chemical_formula_structural             'Pd~8~ Sb~3~'
_chemical_formula_sum                    'Pd8 Sb3'
_chemical_name_mineral                   ?
_chemical_compound_source                ?
_chemical_name_structure_type            Pd~8~Sb~3~,hR132,161
_chemical_formula_weight                 1216.4

# Bibliographic data

_publ_section_title
'Kristallstruktur von Pd~5~Sb~2~ und Ni~5~As~2~ und einigen Varianten'        
_journal_coden_ASTM                      JCOMAH
_journal_name_full                       'J. Less-Common Met.'
_journal_year                            1970
_journal_volume                          22
_journal_page_first                      445
_journal_page_last                       458
_journal_language                        German
loop_
 _publ_author_name
 _publ_author_address
'El Boragy M.'
;
Max Planck Society (MPG)
Max Planck Institut (MPI) fur Metallforschung
Stuttgart
Germany
;
'Bhan S.'
;
Max Planck Society (MPG)
Max Planck Institut (MPI) fur Metallforschung
Stuttgart
Germany
;
'Schubert K.'
;
Max Planck Society (MPG)
Max Planck Institut (MPI) fur Metallforschung
Stuttgart
Germany
;

# Standardized crystallographic data

_cell_length_a                           7.613
_cell_length_b                           7.613
_cell_length_c                           42.24
_cell_angle_alpha                        90
_cell_angle_beta                         90
_cell_angle_gamma                        120
_cell_volume                             2120.15
_cell_formula_units_Z                    12
_space_group_IT_number                   161
_space_group_name_H-M_alt                'R 3 c h'
loop_
 _space_group_symop_id
 _space_group_symop_operation_xyz
 1 'x, y, z'
 2 '-x+y, -x, z'
 3 '-x+y, y, 1/2+z'
 4 '-y, -x, 1/2+z'
 5 '-y, x-y, z'
 6 'x, x-y, 1/2+z'
 7 '2/3+x, 1/3+y, 1/3+z'
 8 '2/3-x+y, 1/3-x, 1/3+z'
 9 '2/3-x+y, 1/3+y, 5/6+z'
 10 '2/3-y, 1/3-x, 5/6+z'
 11 '2/3-y, 1/3+x-y, 1/3+z'
 12 '2/3+x, 1/3+x-y, 5/6+z'
 13 '1/3+x, 2/3+y, 2/3+z'
 14 '1/3-x+y, 2/3-x, 2/3+z'
 15 '1/3-x+y, 2/3+y, 1.16667+z'
 16 '1/3-y, 2/3-x, 1.16667+z'
 17 '1/3-y, 2/3+x-y, 2/3+z'
 18 '1/3+x, 2/3+x-y, 1.16667+z'

# Atomic positions taken from type-defining entry

loop_
 _atom_type_symbol
 Pd
 Sb
loop_
 _atom_site_label
 _atom_site_type_symbol
 _atom_site_symmetry_multiplicity
 _atom_site_Wyckoff_symbol
 _atom_site_fract_x
 _atom_site_fract_y
 _atom_site_fract_z
 _atom_site_occupancy
 Pd1 Pd 18 b 0.0218 0.3226 0.0263 1
 Pd2 Pd 18 b 0.2549 0.0076 0.2273 1
 Sb1 Sb 18 b 0.3230 0.0059 0.0932 1
 Pd3 Pd 18 b 0.3310 0.0282 0.1583 1
 Pd4 Pd 18 b 0.3987 0.0627 0.2899 1
 Sb2 Sb 6 a 0 0 0.0000 1
 Pd5 Pd 6 a 0 0 0.0620 1
 Pd6 Pd 6 a 0 0 0.1241 1
 Sb3 Sb 6 a 0 0 0.1861 1
 Pd7 Pd 6 a 0 0 0.2804 1
 Sb4 Sb 6 a 0 0 0.3427 1
 Pd8 Pd 6 a 0 0 0.4044 1


_exptl_crystal_colour                    ?
_exptl_crystal_density_meas              ?
_exptl_crystal_density_diffrn            11.43
_cell_measurement_temperature            ?
_cell_measurement_radiation              'X-rays, Cu Ka'
_cell_measurement_reflns_used            ?
_diffrn_ambient_temperature              ?
_diffrn_measurement_device               'Guinier film'
_diffrn_measurement_device_type          ?
_diffrn_radiation_type                   ?
_diffrn_reflns_number                    ?
_exptl_absorpt_coefficient_mu            ?
_exptl_absorpt_correction_type           ?
_computing_structure_solution            ?
_refine_ls_number_parameters             ?
_refine_ls_number_reflns                 ?
_refine_ls_R_factor_gt                   ?
_refine_ls_wR_factor_gt                  ?

# Published diffraction lines

loop_
 _refln_index_h
 _refln_index_k
 _refln_index_l
 _refln_d_spacing
 _refln_intensity_meas
 0 0 6 7.067 1
 1 1 3 3.679 3
 0 0 12 3.53 2.5
 1 1 6 3.349 3.5
 2 0 5 3.074 2
 1 0 13 2.918 2.5
 0 2 7 2.897 2
 0 0 15 2.817 1
 2 0 8 2.796 1
 0 1 14 2.743 1
 1 1 12 2.586 3
 2 0 11 2.505 3.5
 2 1 1 2.488 2
 1 2 2 2.474 5
 2 1 4 2.427 3.5
 1 2 5 2.392 3
 0 0 18 2.35 2.5
 0 2 13 2.317 5
 2 1 7 2.308 2
 1 1 15 2.265 7
 1 2 8 2.254 2
 2 0 14 2.225 1
 0 3 0 2.2 7
 0 3 3 2.172 1
 2 1 10 2.15 2
 1 2 11 2.092 3
 1 1 18 2.001 5
 0 3 9 1.989 2
 2 1 13 1.98 5
 1 2 14 1.926 3.5
 0 3 12 1.867 3.5
 1 0 22 1.847 1
 2 2 6 1.841 2
 3 1 2 1.825 2.5
 1 3 4 1.805 2
 1 1 21 1.783 2
 2 2 9 1.764 2
 2 2 12 1.676 1
 0 2 22 1.661 1
 1 2 20 1.61 2
 1 3 13 1.594 1
 0 1 26 1.579 7

# End of data set 251281

