##############################################################################
#                                                                            #
# Ge-Pt-Y          # Y3Pt4Ge13 ht                                  # 1530061 #
#                                                                            #
##############################################################################
#                                                                            #
#                           Pearson's Crystal Data                           #
#      Crystal Structure Database for Inorganic Compounds (on DVD)           #
#                              Release 2023/24                               #
#                  Editors: Pierre Villars and Karin Cenzual                 #
#                                                                            #
#   Copyright (c) ASM International & Material Phases Data System (MPDS),    #
# Switzerland & National Institute for Materials Science (NIMS), Japan, 2023 #
#                   All rights reserved. Version 2023.07                     #
#                                                                            #
#   This copy of Pearson's Crystal Data is licensed to:                      #
#   Hunter College - City University of New York                             #
#                                                                            #
##############################################################################

data_1530061
_audit_creation_date                     2024-02-25
_audit_creation_method
;
Pearson's Crystal Data browser
;
#_database_code_PCD                      1530061
_database_code_PDF                       04-022-2627

# Entry summary

_chemical_formula_structural             'Y~3~ Pt~4~ Ge~13~'
_chemical_formula_sum                    'Ge13 Pt4 Y3'
_chemical_name_mineral                   ?
_chemical_compound_source                ?
_chemical_name_structure_type            Y~3~Pt~4~Ge~13~,hR120,161
_chemical_formula_weight                 1990.7

# Bibliographic data

_publ_section_title
;
Intermetallic germanides with noncentrosymmetric structures derived from the Yb~3~Rh~4~Sn~13~ type
;
_journal_coden_ASTM                      DTARAF
_journal_name_full                       'Dalton Trans.'
_journal_year                            2015
_journal_volume                          44
_journal_page_first                      5638
_journal_page_last                       5651
_journal_language                        English
loop_
 _publ_author_name
 _publ_author_address
'Gumeniuk R.'
;
Max Planck Society (MPG)
Max Planck Institut (MPI) fur Chemische Physik Fester Stoffe
Dresden
Germany
;
'Curfs C.'
;
European Synchrotron Radiation Facility (ESRF)
Grenoble
France
;
'Burkhardt U.'
;
Max Planck Society (MPG)
Max Planck Institut (MPI) fur Chemische Physik Fester Stoffe
Dresden
Germany
;
'Schwarz U.'
;
Max Planck Society (MPG)
Max Planck Institut (MPI) fur Chemische Physik Fester Stoffe
Dresden
Germany
;
'Leithe Jasper A.'
;
Max Planck Society (MPG)
Max Planck Institut (MPI) fur Chemische Physik Fester Stoffe
Dresden
Germany
;
'Schoneich M.'
;
Max Planck Society (MPG)
Max Planck Institut (MPI) fur Chemische Physik Fester Stoffe
Dresden
Germany
;
'Kvashnina K.O.'
;
European Synchrotron Radiation Facility (ESRF)
Grenoble
France
;
'Akselrud L.'
;
Max Planck Society (MPG)
Max Planck Institut (MPI) fur Chemische Physik Fester Stoffe
Dresden
Germany
;
'Tsirlin A.A.'
;
Max Planck Society (MPG)
Max Planck Institut (MPI) fur Chemische Physik Fester Stoffe
Dresden
Germany
;
'Nicklas M.'
;
Max Planck Society (MPG)
Max Planck Institut (MPI) fur Chemische Physik Fester Stoffe
Dresden
Germany
;
'Schnelle W.'
;
Max Planck Society (MPG)
Max Planck Institut (MPI) fur Chemische Physik Fester Stoffe
Dresden
Germany
;
'Janson O.'
;
Max Planck Society (MPG)
Max Planck Institut (MPI) fur Chemische Physik Fester Stoffe
Dresden
Germany
;
'Zheng Q.'
;
Max Planck Society (MPG)
Max Planck Institut (MPI) fur Chemische Physik Fester Stoffe
Dresden
Germany
;

# Standardized crystallographic data

_cell_length_a                           12.7423
_cell_length_b                           12.7423
_cell_length_c                           15.6888
_cell_angle_alpha                        90
_cell_angle_beta                         90
_cell_angle_gamma                        120
_cell_volume                             2206.1
_cell_formula_units_Z                    6
_space_group_IT_number                   161
_space_group_name_H-M_alt                'R 3 c h'
loop_
 _space_group_symop_id
 _space_group_symop_operation_xyz
 1 'x, y, z'
 2 '-x+y, -x, z'
 3 '-x+y, y, 1/2+z'
 4 '-y, -x, 1/2+z'
 5 '-y, x-y, z'
 6 'x, x-y, 1/2+z'
 7 '2/3+x, 1/3+y, 1/3+z'
 8 '2/3-x+y, 1/3-x, 1/3+z'
 9 '2/3-x+y, 1/3+y, 5/6+z'
 10 '2/3-y, 1/3-x, 5/6+z'
 11 '2/3-y, 1/3+x-y, 1/3+z'
 12 '2/3+x, 1/3+x-y, 5/6+z'
 13 '1/3+x, 2/3+y, 2/3+z'
 14 '1/3-x+y, 2/3-x, 2/3+z'
 15 '1/3-x+y, 2/3+y, 1.16667+z'
 16 '1/3-y, 2/3-x, 1.16667+z'
 17 '1/3-y, 2/3+x-y, 2/3+z'
 18 '1/3+x, 2/3+x-y, 1.16667+z'
loop_
 _atom_type_symbol
 Ge
 Y
 Pt
loop_
 _atom_site_label
 _atom_site_type_symbol
 _atom_site_symmetry_multiplicity
 _atom_site_Wyckoff_symbol
 _atom_site_fract_x
 _atom_site_fract_y
 _atom_site_fract_z
 _atom_site_occupancy
 Ge5 Ge 18 b 0.0461 0.2071 0.2025 1
 Ge3 Ge 18 b 0.1526 0.0152 0.3881 1
 Ge2 Ge 18 b 0.1693 0.175 0.0803 1
 Y Y 18 b 0.2505 0.0006 0.0 1
 Pt2 Pt 18 b 0.33337 0.16381 0.16563 1
 Ge4 Ge 18 b 0.43867 0.04253 0.14423 1
 Pt1 Pt 6 a 0 0 0.0 1
 Ge1 Ge 6 a 0 0 0.2481 1


_exptl_crystal_colour                    ?
_exptl_crystal_density_meas              ?
_exptl_crystal_density_diffrn            8.99
_cell_measurement_temperature            ?
_cell_measurement_radiation              ?
_cell_measurement_reflns_used            ?
_diffrn_ambient_temperature              480
_diffrn_measurement_device               'automatic diffractometer'
_diffrn_measurement_device_type
'France, Grenoble, European Synchrotron Radiation Facility ESRF, ID31'        
_diffrn_radiation_type                   'X-rays, synchrotron'
_diffrn_radiation_wavelength             0.3542
_diffrn_reflns_number                    ?
_diffrn_reflns_theta_min                 1
_diffrn_reflns_theta_max                 17
_pd_proc_2theta_range_min                2
_pd_proc_2theta_range_max                34
_exptl_absorpt_coefficient_mu            ?
_exptl_absorpt_correction_type           ?
_computing_structure_solution            'direct methods'
_refine_ls_number_parameters             38
_refine_ls_number_reflns                 ?
_refine_ls_R_factor_gt                   ?
_refine_ls_wR_factor_gt                  ?
_pd_proc_ls_proof_R_factor               0.126
_pd_proc_ls_proof_wR_factor              ?
_refine_ls_R_I_factor                    ?

# End of data set 1530061

