##############################################################################
#                                                                            #
# Fe-Sb            # FeSb2                                         # 1010947 #
#                                                                            #
##############################################################################
#                                                                            #
#                           Pearson's Crystal Data                           #
#      Crystal Structure Database for Inorganic Compounds (on DVD)           #
#                              Release 2022/23                               #
#                  Editors: Pierre Villars and Karin Cenzual                 #
#                                                                            #
#   Copyright (c) ASM International & Material Phases Data System (MPDS),    #
# Switzerland & National Institute for Materials Science (NIMS), Japan, 2022 #
#                   All rights reserved. Version 2022.07                     #
#                                                                            #
#   This copy of Pearson's Crystal Data is licensed to:                      #
#   University of Alberta, Chemistry Department, 1-5 Installations License         #
#                                                                            #
##############################################################################

data_1010947
_audit_creation_date                     2023-07-09
_audit_creation_method
;
Pearson's Crystal Data browser
;
#_database_code_PCD                      1010947
_database_code_PDF                       ?

# Entry summary

_chemical_formula_structural             'Fe Sb~2~'
_chemical_formula_sum                    'Fe Sb2'
_chemical_name_mineral                   seinajokite
_chemical_compound_source                ?
_chemical_name_structure_type            FeAs~2~,oP6,58
_chemical_formula_weight                 299.3

# Bibliographic data

_publ_section_title
;
X-ray studies on the binary systems of iron with nitrogen, phosphorus, arsenic, antimony and bismuth
;
_journal_coden_ASTM                      NOARAM
_journal_name_full                       'Nova Acta Regiae Soc. Sci. Ups.'
_journal_year                            1929
_journal_volume                          7
_journal_issue                           1
_journal_page_first                      1
_journal_page_last                       95
_journal_language                        English
loop_
 _publ_author_name
 _publ_author_address
'Hagg G.'
;
Uppsala University
Uppsala
Sweden
;

# Standardized crystallographic data

_cell_length_a                           5.819
_cell_length_b                           6.52
_cell_length_c                           3.189
_cell_angle_alpha                        90
_cell_angle_beta                         90
_cell_angle_gamma                        90
_cell_volume                             121
_cell_formula_units_Z                    2
_space_group_IT_number                   58
_space_group_name_H-M_alt                'P n n m'
loop_
 _space_group_symop_id
 _space_group_symop_operation_xyz
 1 'x, y, z'
 2 '1/2-x, 1/2+y, 1/2-z'
 3 '1/2-x, 1/2+y, 1/2+z'
 4 '-x, -y, -z'
 5 '-x, -y, z'
 6 '1/2+x, 1/2-y, 1/2-z'
 7 '1/2+x, 1/2-y, 1/2+z'
 8 'x, y, -z'
loop_
 _atom_type_symbol
 Sb
 Fe
loop_
 _atom_site_label
 _atom_site_type_symbol
 _atom_site_symmetry_multiplicity
 _atom_site_Wyckoff_symbol
 _atom_site_fract_x
 _atom_site_fract_y
 _atom_site_fract_z
 _atom_site_occupancy
 Sb Sb 4 g 0.18 0.36 0 1
 Fe Fe 2 a 0 0 0 1


_exptl_crystal_colour                    ?
_exptl_crystal_density_meas              8.133
_exptl_crystal_density_diffrn            8.22
_cell_measurement_temperature            ?
_cell_measurement_radiation              'X-rays, Fe K'
_cell_measurement_reflns_used            ?
_diffrn_ambient_temperature              ?
_diffrn_measurement_device               film
_diffrn_measurement_device_type          ?
_diffrn_radiation_type                   'X-rays, Fe K'
_diffrn_reflns_number                    ?
_exptl_absorpt_coefficient_mu            ?
_exptl_absorpt_correction_type           ?
_computing_structure_solution            'crystal chemical considerations'
_refine_ls_number_parameters             ?
_refine_ls_number_reflns                 ?
_refine_ls_R_factor_gt                   ?
_refine_ls_wR_factor_gt                  ?
_pd_proc_ls_proof_R_factor               ?
_pd_proc_ls_proof_wR_factor              ?
_refine_ls_R_I_factor                    ?

# Published diffraction lines

loop_
 _refln_index_h
 _refln_index_k
 _refln_index_l
 _refln_d_spacing
 _refln_intensity_meas
 0 2 0 2.921 3
 1 0 1 2.875 5
 0 1 2 2.85 5
 0 1 2 2.85 7
 1 1 0 2.808 7
 1 1 0 2.806 5
 0 2 1 2.676 5
 0 2 1 2.673 3
 1 1 1 2.584 7
 0 0 3 2.182 2
 0 0 3 2.177 3
 1 1 2 2.132 2
 1 2 1 2.048 3
 1 2 1 2.047 7
 0 3 1 1.862 7
 1 0 3 1.799 7
 1 0 3 1.797 5
 0 2 3 1.744 3
 1 1 3 1.721 2
 1 1 3 1.72 5
 0 3 2 1.67 3
 1 3 0 1.66 5
 1 3 0 1.657 3
 0 0 4 1.633 5
 1 3 1 1.609 3
 2 0 0 1.598 7
 2 0 0 1.597 3
 0 1 4 1.571 5
 1 2 3 1.533 3
 1 2 3 1.53 2
 1 3 2 1.478 5
 0 3 3 1.448 5
 0 2 4 1.423 7
 2 2 0 1.401 2
 2 2 0 1.4 3
 2 1 2 1.392 2
 2 1 2 1.392 7
 2 2 1 1.369 5
 2 2 1 1.368 3
 1 2 4 1.301 3
 1 4 1 1.3 3
 2 2 2 1.288 3
 2 1 3 1.257 5
 2 1 3 1.256 5
 1 4 2 1.227 3
 1 4 2 1.227 7
 1 4 2 1.227 7
 2 3 1 1.213 3
 2 3 1 1.212 7
 2 3 1 1.212 7
 0 2 5 1.192 3
 0 2 5 1.192 3
 1 1 5 1.184 3
 1 1 5 1.184 7
 1 1 5 1.184 7
 1 3 4 1.164 7
 1 3 4 1.164 7
 1 3 4 1.163 3
 2 3 2 1.154 2
 2 3 2 1.154 2
 2 0 4 1.142 3
 2 0 4 1.142 3
 2 1 4 1.121 3
 2 1 4 1.121 3
 0 5 2 1.098 3
 0 5 2 1.098 3
 1 5 0 1.095 2
 1 5 0 1.095 5
 1 5 0 1.095 5
 0 0 6 1.089 3
 0 0 6 1.089 3
 1 5 1 1.08 3
 1 5 1 1.08 3
 2 3 3 1.074 5
 2 3 3 1.073 5
 0 1 6 1.07 5
 0 1 6 1.07 5
 2 2 4 1.064 5
 2 2 4 1.064 5
 2 4 1 1.062 5
 2 4 1 1.062 5
 3 0 1 1.052 3
 3 1 0 1.048 3
 3 1 0 1.048 3
 3 1 1 1.035 7
 3 1 1 1.035 7
 1 4 4 1.03 5
 1 4 4 1.03 5
 0 5 3 1.028 7
 0 5 3 1.028 7
 2 4 2 1.023 2
 2 4 2 1.022 2
 1 1 6 1.015 3
 1 1 6 1.015 3
 2 1 5 0.997 3
 2 1 5 0.997 3
 3 2 1 0.989 7
 3 2 1 0.989 7
 3 2 2 0.957 3

# End of data set 1010947

