##############################################################################
#                                                                            #
# Ni-Si            # Ni2Si rt                                      # 1010986 #
#                                                                            #
##############################################################################
#                                                                            #
#                           Pearson's Crystal Data                           #
#      Crystal Structure Database for Inorganic Compounds (on DVD)           #
#                              Release 2022/23                               #
#                  Editors: Pierre Villars and Karin Cenzual                 #
#                                                                            #
#   Copyright (c) ASM International & Material Phases Data System (MPDS),    #
# Switzerland & National Institute for Materials Science (NIMS), Japan, 2022 #
#                   All rights reserved. Version 2022.07                     #
#                                                                            #
#   This copy of Pearson's Crystal Data is licensed to:                      #
#   University of Alberta, Chemistry Department, 1-5 Installations License         #
#                                                                            #
##############################################################################

data_1010986
_audit_creation_date                     2023-07-09
_audit_creation_method
;
Pearson's Crystal Data browser
;
#_database_code_PCD                      1010986
_database_code_PDF                       ?

# Entry summary

_chemical_formula_structural             'Ni~2~ Si'
_chemical_formula_sum                    'Ni2 Si'
_chemical_name_mineral                   ?
_chemical_compound_source                ?
_chemical_name_structure_type            Co~2~Si-b,oP12,62
_chemical_formula_weight                 145.5

# Bibliographic data

_publ_section_title
'New intermetallic phases in the Ni-Si-Mg ternary system'                     
_journal_coden_ASTM                      IERME5
_journal_name_full                       Intermetallics
_journal_year                            1998
_journal_volume                          6
_journal_page_first                      43
_journal_page_last                       59
_journal_language                        English
loop_
 _publ_author_name
 _publ_author_address
'Song Y.K.'
;
Waterloo University
Department of Mechanical Engineering
Waterloo
Canada
;
'Varin R.A.'
;
Waterloo University
Department of Mechanical Engineering
Waterloo
Canada
;

# Standardized crystallographic data

_cell_length_a                           5.0039
_cell_length_b                           3.7296
_cell_length_c                           7.0636
_cell_angle_alpha                        90
_cell_angle_beta                         90
_cell_angle_gamma                        90
_cell_volume                             131.8
_cell_formula_units_Z                    4
_space_group_IT_number                   62
_space_group_name_H-M_alt                'P n m a'
loop_
 _space_group_symop_id
 _space_group_symop_operation_xyz
 1 'x, y, z'
 2 '1/2-x, -y, 1/2+z'
 3 '1/2-x, 1/2+y, 1/2+z'
 4 '-x, -y, -z'
 5 '-x, 1/2+y, -z'
 6 '1/2+x, 1/2-y, 1/2-z'
 7 '1/2+x, y, 1/2-z'
 8 'x, 1/2-y, z'

# Atomic positions taken from type-defining entry

loop_
 _atom_type_symbol
 Ni
 Si
loop_
 _atom_site_label
 _atom_site_type_symbol
 _atom_site_symmetry_multiplicity
 _atom_site_Wyckoff_symbol
 _atom_site_fract_x
 _atom_site_fract_y
 _atom_site_fract_z
 _atom_site_occupancy
 Ni1 Ni 4 c 0.038 0.25 0.718 1
 Ni2 Ni 4 c 0.174 0.25 0.062 1
 Si1 Si 4 c 0.202 0.25 0.389 1


_exptl_crystal_colour                    ?
_exptl_crystal_density_meas              7.31
_exptl_crystal_density_diffrn            7.33
_cell_measurement_temperature            ?
_cell_measurement_radiation              'X-rays, Cu Ka'
_cell_measurement_wavelength             1.5406
_pd_proc_wavelength                      1.5406
_cell_measurement_reflns_used            ?
_diffrn_ambient_temperature              ?
_diffrn_measurement_device               'automatic diffractometer'
_diffrn_measurement_device_type          ?
_diffrn_radiation_type                   ?
_diffrn_reflns_number                    ?
_exptl_absorpt_coefficient_mu            ?
_exptl_absorpt_correction_type           ?
_computing_structure_solution            ?
_refine_ls_number_parameters             ?
_refine_ls_number_reflns                 ?
_refine_ls_R_factor_gt                   ?
_refine_ls_wR_factor_gt                  ?

# Published diffraction lines

loop_
 _refln_index_h
 _refln_index_k
 _refln_index_l
 _refln_d_spacing
 _refln_intensity_meas
 1 0 1 3.304 8.9
 2 1 0 2.889 7.6
 1 1 1 2.757 13.2
 2 1 1 2.283 27.9
 3 1 0 2.132 20.2
 0 2 1 2.079 31.1
 2 2 0 2.043 21.6
 3 0 1 1.993 100.0
 0 0 2 1.866 50.2
 3 1 1 1.851 22.5
 3 2 0 1.716 12.0
 4 1 0 1.667 5.5
 1 3 0 1.625 5.8
 4 1 1 1.522 5.8
 4 2 0 1.444 5.5
 3 1 2 1.404 11.5
 2 2 2 1.378 11.9
 5 1 0 1.361 7.1
 3 2 2 1.263 8.5
 4 3 1 1.154 7.6

# End of data set 1010986

