##############################################################################
#                                                                            #
# Ni-Si            # Ni31Si12                                      # 1100709 #
#                                                                            #
##############################################################################
#                                                                            #
#                           Pearson's Crystal Data                           #
#      Crystal Structure Database for Inorganic Compounds (on DVD)           #
#                              Release 2022/23                               #
#                  Editors: Pierre Villars and Karin Cenzual                 #
#                                                                            #
#   Copyright (c) ASM International & Material Phases Data System (MPDS),    #
# Switzerland & National Institute for Materials Science (NIMS), Japan, 2022 #
#                   All rights reserved. Version 2022.07                     #
#                                                                            #
#   This copy of Pearson's Crystal Data is licensed to:                      #
#   University of Alberta, Chemistry Department, 1-5 Installations License         #
#                                                                            #
##############################################################################

data_1100709
_audit_creation_date                     2023-07-09
_audit_creation_method
;
Pearson's Crystal Data browser
;
#_database_code_PCD                      1100709
_database_code_PDF                       04-006-9133

# Entry summary

_chemical_formula_structural             'Ni~31~ Si~12~'
_chemical_formula_sum                    'Ni31 Si12'
_chemical_name_mineral                   ?
_chemical_compound_source                ?
_chemical_name_structure_type            Ni~31~Si~12~,hP43,150
_chemical_formula_weight                 2156.7

# Bibliographic data

_publ_section_title
'Phase Diagrams of the Ternary Systems Mn, Fe, Co, Ni-Si-N'                   
_journal_coden_ASTM                      JSSCBI
_journal_name_full                       'J. Solid State Chem.'
_journal_year                            1987
_journal_volume                          70
_journal_page_first                      178
_journal_page_last                       184
_journal_language                        English
loop_
 _publ_author_name
 _publ_author_address
'Weitzer F.'
;
Vienna University
Institut fur Physikalische Chemie
Vienna
Austria
;
'Schuster J.C.'
;
Vienna University
Institut fur Physikalische Chemie
Vienna
Austria
;

# Standardized crystallographic data

_cell_length_a                           6.6777
_cell_length_b                           6.6777
_cell_length_c                           12.28
_cell_angle_alpha                        90
_cell_angle_beta                         90
_cell_angle_gamma                        120
_cell_volume                             474.2
_cell_formula_units_Z                    1
_space_group_IT_number                   150
_space_group_name_H-M_alt                'P 3 2 1'
loop_
 _space_group_symop_id
 _space_group_symop_operation_xyz
 1 'x, y, z'
 2 '-x+y, -x, z'
 3 '-x, -x+y, -z'
 4 '-y, x-y, z'
 5 'x-y, -y, -z'
 6 'y, x, -z'

# Atomic positions taken from type-defining entry

loop_
 _atom_type_symbol
 Ni
 Si
loop_
 _atom_site_label
 _atom_site_type_symbol
 _atom_site_symmetry_multiplicity
 _atom_site_Wyckoff_symbol
 _atom_site_fract_x
 _atom_site_fract_y
 _atom_site_fract_z
 _atom_site_occupancy
 Ni1 Ni 6 g 0.034 0.358 0.1935 1
 Ni2 Ni 6 g 0.079 0.413 0.4036 1
 Ni3 Ni 6 g 0.336 0.298 0.3017 1
 Ni4 Ni 6 g 0.373 0.309 0.0954 1
 Si1 Si 3 f 0.682 0 0.5 1
 Si2 Si 3 e 0.349 0 0 1
 Ni5 Ni 2 d 0.333333 0.666667 0.0667 1
 Si3 Si 2 d 0.333333 0.666667 0.274 1
 Ni6 Ni 2 d 0.333333 0.666667 0.5717 1
 Si4 Si 2 d 0.333333 0.666667 0.775 1
 Si5 Si 2 c 0 0 0.213 1
 Ni7 Ni 2 c 0 0 0.4049 1
 Ni8 Ni 1 a 0 0 0 1


_exptl_crystal_colour                    ?
_exptl_crystal_density_meas              ?
_exptl_crystal_density_diffrn            7.55
_cell_measurement_temperature            ?
_cell_measurement_radiation              'X-rays, Co Ka1'
_cell_measurement_reflns_used            ?
_diffrn_ambient_temperature              ?
_diffrn_measurement_device               'Guinier film'
_diffrn_measurement_device_type          ?
_diffrn_radiation_type                   ?
_diffrn_reflns_number                    ?
_exptl_absorpt_coefficient_mu            ?
_exptl_absorpt_correction_type           ?
_computing_structure_solution            ?
_refine_ls_number_parameters             ?
_refine_ls_number_reflns                 ?
_refine_ls_R_factor_gt                   ?
_refine_ls_wR_factor_gt                  ?

# End of data set 1100709

