##############################################################################
#                                                                            #
# Os-Sb            # OsSb2                                         # 1503786 #
#                                                                            #
##############################################################################
#                                                                            #
#                           Pearson's Crystal Data                           #
#      Crystal Structure Database for Inorganic Compounds (on DVD)           #
#                              Release 2022/23                               #
#                  Editors: Pierre Villars and Karin Cenzual                 #
#                                                                            #
#   Copyright (c) ASM International & Material Phases Data System (MPDS),    #
# Switzerland & National Institute for Materials Science (NIMS), Japan, 2022 #
#                   All rights reserved. Version 2022.07                     #
#                                                                            #
#   This copy of Pearson's Crystal Data is licensed to:                      #
#   University of Alberta, Chemistry Department, 1-5 Installations License         #
#                                                                            #
##############################################################################

data_1503786
_audit_creation_date                     2023-07-09
_audit_creation_method
;
Pearson's Crystal Data browser
;
#_database_code_PCD                      1503786
_database_code_PDF                       04-007-9944

# Entry summary

_chemical_formula_structural             'Os Sb~2~'
_chemical_formula_sum                    'Os Sb2'
_chemical_name_mineral                   ?
_chemical_compound_source                ?
_chemical_name_structure_type            FeAs~2~,oP6,58
_chemical_formula_weight                 433.7

# Bibliographic data

_publ_section_title
'The atomic structure of RuSb~2~ and OsSb~2~'                                 
_journal_coden_ASTM                      SPHCA6
_journal_name_full                       'Sov. Phys. Crystallogr.'
_journal_year                            1960
_journal_volume                          5
_journal_page_first                      202
_journal_page_last                       206
_journal_language                        English
loop_
 _publ_author_name
 _publ_author_address
'Kuz'min R.N.'
;
Moscow M.V. Lomonosov State University (MSU)
Moscow
Russia
;
'Zhuravlev N.N.'
;
Moscow M.V. Lomonosov State University (MSU)
Moscow
Russia
;
'Losievskaya S.A.'
;
Moscow M.V. Lomonosov State University (MSU)
Moscow
Russia
;

# Standardized crystallographic data

_cell_length_a                           5.912
_cell_length_b                           6.653
_cell_length_c                           3.196
_cell_angle_alpha                        90
_cell_angle_beta                         90
_cell_angle_gamma                        90
_cell_volume                             125.7
_cell_formula_units_Z                    2
_space_group_IT_number                   58
_space_group_name_H-M_alt                'P n n m'
loop_
 _space_group_symop_id
 _space_group_symop_operation_xyz
 1 'x, y, z'
 2 '1/2-x, 1/2+y, 1/2-z'
 3 '1/2-x, 1/2+y, 1/2+z'
 4 '-x, -y, -z'
 5 '-x, -y, z'
 6 '1/2+x, 1/2-y, 1/2-z'
 7 '1/2+x, 1/2-y, 1/2+z'
 8 'x, y, -z'

# Atomic positions taken from type-defining entry

loop_
 _atom_type_symbol
 Sb
 Os
loop_
 _atom_site_label
 _atom_site_type_symbol
 _atom_site_symmetry_multiplicity
 _atom_site_Wyckoff_symbol
 _atom_site_fract_x
 _atom_site_fract_y
 _atom_site_fract_z
 _atom_site_occupancy
 Sb1 Sb 4 g 0.1760 0.3625 0 1
 Os1 Os 2 a 0 0 0 1


_exptl_crystal_colour                    ?
_exptl_crystal_density_meas              11.4
_exptl_crystal_density_diffrn            11.46
_cell_measurement_temperature            ?
_cell_measurement_radiation              'X-rays, Cu Ka, Fe Ka'
_cell_measurement_reflns_used            ?
_diffrn_ambient_temperature              ?
_diffrn_measurement_device               film
_diffrn_measurement_device_type          ?
_diffrn_radiation_type                   ?
_diffrn_reflns_number                    ?
_exptl_absorpt_coefficient_mu            ?
_exptl_absorpt_correction_type           ?
_computing_structure_solution            ?
_refine_ls_number_parameters             ?
_refine_ls_number_reflns                 ?
_refine_ls_R_factor_gt                   ?
_refine_ls_wR_factor_gt                  ?

# Published diffraction lines

loop_
 _refln_index_h
 _refln_index_k
 _refln_index_l
 _refln_d_spacing
 _refln_intensity_meas
 1 1 0 4.45 3
 0 2 0 3.34 1
 1 2 0 2.9 4
 1 0 1 2.81 9
 2 1 0 2.7 2
 1 1 1 2.59 5
 2 2 0 2.21 4
 1 2 1 2.15 4
 1 3 0 2.08 4
 2 1 1 2.06 8
 3 1 0 1.89 5
 0 3 1 1.82 6
 2 3 0 1.77 1
 1 3 1 1.74 2
 3 2 0 1.7 1
 3 1 1 1.62 1
 1 4 0 1.6 1
 0 0 2 1.598 7
 3 2 1 1.499 6
 4 0 0 1.478 1
 2 4 0 1.449 4
 4 1 0 1.441 4
 1 4 1 1.431 1
 1 2 2 1.399 5
 2 1 2 1.376 4
 4 2 0 1.35 2
 2 4 1 1.32 2
 4 1 1 1.315 3
 1 5 0 1.298 2
 2 2 2 1.295 5
 1 3 2 1.267 5
 4 2 1 1.244 4
 4 3 0 1.229 2
 3 1 2 1.22 8
 2 5 0 1.213 1
 1 5 1 1.203 2
 2 3 2 1.187 1
 3 4 1 1.181 5
 3 2 2 1.163 3
 4 3 1 1.148 3
 2 5 1 1.134 2
 5 0 1 1.109 6

# End of data set 1503786

