##############################################################################
#                                                                            #
# In-Ni            # Ni7In3 rt                                     # 1522292 #
#                                                                            #
##############################################################################
#                                                                            #
#                           Pearson's Crystal Data                           #
#      Crystal Structure Database for Inorganic Compounds (on DVD)           #
#                              Release 2022/23                               #
#                  Editors: Pierre Villars and Karin Cenzual                 #
#                                                                            #
#   Copyright (c) ASM International & Material Phases Data System (MPDS),    #
# Switzerland & National Institute for Materials Science (NIMS), Japan, 2022 #
#                   All rights reserved. Version 2022.07                     #
#                                                                            #
#   This copy of Pearson's Crystal Data is licensed to:                      #
#   University of Alberta, Chemistry Department, 1-5 Installations License         #
#                                                                            #
##############################################################################

data_1522292
_audit_creation_date                     2023-07-09
_audit_creation_method
;
Pearson's Crystal Data browser
;
#_database_code_PCD                      1522292
_database_code_PDF                       04-013-5182

# Entry summary

_chemical_formula_structural             'Ni~7~ In~3~'
_chemical_formula_sum                    'In3 Ni6.74'
_chemical_name_mineral                   ?
_chemical_compound_source                ?
_chemical_name_structure_type            Cu~7~In~3~,aP40,2
_chemical_formula_weight                 755.4

# Bibliographic data

_publ_section_title
;
A neutron and X-ray powder diffraction study of B8~2~ related superstructure phases in the Ni-In system
;
_journal_coden_ASTM                      JALCEU
_journal_name_full                       'J. Alloys Compd.'
_journal_year                            2006
_journal_volume                          424
_journal_page_first                      247
_journal_page_last                       254
_journal_language                        English
loop_
 _publ_author_name
 _publ_author_address
'Noren L.'
;
Australian National University (ANU)
Research School of Chemistry
Canberra
Australia
;
'Larsson A.K.'
;
Australian National University (ANU)
Department of Applied Mathematics
Canberra
Australia
;
'Withers R.L.'
;
Australian National University (ANU)
Research School of Chemistry
Canberra
Australia
;
'Rundlof H.'
;
Uppsala University
Studsvik Neutron Research Laboratory (NFL)
Studsvik/Nykoping
Sweden
;

# Standardized crystallographic data

_cell_length_a                           6.5697
_cell_length_b                           8.9083
_cell_length_c                           9.7945
_cell_angle_alpha                        73.144
_cell_angle_beta                         82.911
_cell_angle_gamma                        90.285
_cell_volume                             543.9
_cell_formula_units_Z                    4
_space_group_IT_number                   2
_space_group_name_H-M_alt                'P -1'
loop_
 _space_group_symop_id
 _space_group_symop_operation_xyz
 1 'x, y, z'
 2 '-x, -y, -z'
loop_
 _atom_type_symbol
 Ni
 In
loop_
 _atom_site_label
 _atom_site_type_symbol
 _atom_site_symmetry_multiplicity
 _atom_site_Wyckoff_symbol
 _atom_site_fract_x
 _atom_site_fract_y
 _atom_site_fract_z
 _atom_site_occupancy
 Ni15 Ni 2 i 0.0701 0.764 0.4178 0.932
 In4 In 2 i 0.121 0.267 0.33 1
 Ni12 Ni 2 i 0.1439 0.2379 0.7829 0.932
 Ni7 Ni 2 i 0.1505 0.5748 0.2694 1
 In1 In 2 i 0.209 0.466 0.556 1
 Ni13 Ni 2 i 0.2483 0.4577 0.0602 1
 Ni10 Ni 2 i 0.2406 0.8566 0.1633 0.932
 Ni4 Ni 2 i 0.2691 0.1458 0.0807 1
 Ni6 Ni 2 i 0.3018 0.1437 0.5685 0.941
 Ni9 Ni 2 i 0.3264 0.0014 0.3383 0.932
 In2 In 2 i 0.364 0.008 0.87 1
 Ni14 Ni 2 i 0.4703 0.4158 0.3659 1
 In6 In 2 i 0.523 0.628 0.133 1
 Ni8 Ni 2 i 0.531 0.3007 0.1516 1
 Ni3 Ni 2 i 0.5642 0.2888 0.6336 0.941
 In5 In 2 i 0.674 0.154 0.395 1
 Ni2 Ni 2 i 0.8425 0.4541 0.2049 1
 In3 In 2 i 0.923 0.289 0.02 1
 Ni11 Ni 2 i 0.9743 0.0184 0.2495 0.932
 Ni1 Ni 1 b 0 0 0.5 0.941
 Ni5 Ni 1 a 0 0 0 0.941


_exptl_crystal_colour                    ?
_exptl_crystal_density_meas              ?
_exptl_crystal_density_diffrn            9.22
_cell_measurement_temperature            298
_cell_measurement_radiation              neutrons
_cell_measurement_wavelength             1.4695
_pd_proc_wavelength                      1.4695
_cell_measurement_reflns_used            ?
_diffrn_ambient_temperature              298
_diffrn_measurement_device               'automatic diffractometer'
_diffrn_measurement_device_type
'Sweden, Studsvik Neutron Research Laboratory, R2 reactor'                    
_diffrn_radiation_type                   neutrons
_diffrn_radiation_wavelength             1.4695
_diffrn_reflns_number                    ?
_diffrn_reflns_theta_min                 2
_diffrn_reflns_theta_max                 69.96
_pd_proc_2theta_range_min                4
_pd_proc_2theta_range_max                139.92
_exptl_absorpt_coefficient_mu            ?
_exptl_absorpt_correction_type           ?
_computing_structure_solution            'starting values from the literature'
_refine_ls_number_parameters             ?
_refine_ls_number_reflns                 ?
_refine_ls_R_factor_gt                   ?
_refine_ls_wR_factor_gt                  ?
_pd_proc_ls_proof_R_factor               0.0754
_pd_proc_ls_proof_wR_factor              0.0837
_refine_ls_R_I_factor                    0.0368

# End of data set 1522292

