##############################################################################
#                                                                            #
# In-Ni            # Ni13In9 rt                                    # 1522291 #
#                                                                            #
##############################################################################
#                                                                            #
#                           Pearson's Crystal Data                           #
#      Crystal Structure Database for Inorganic Compounds (on DVD)           #
#                              Release 2022/23                               #
#                  Editors: Pierre Villars and Karin Cenzual                 #
#                                                                            #
#   Copyright (c) ASM International & Material Phases Data System (MPDS),    #
# Switzerland & National Institute for Materials Science (NIMS), Japan, 2022 #
#                   All rights reserved. Version 2022.07                     #
#                                                                            #
#   This copy of Pearson's Crystal Data is licensed to:                      #
#   University of Alberta, Chemistry Department, 1-5 Installations License         #
#                                                                            #
##############################################################################

data_1522291
_audit_creation_date                     2023-07-09
_audit_creation_method
;
Pearson's Crystal Data browser
;
#_database_code_PCD                      1522291
_database_code_PDF                       04-013-5181

# Entry summary

_chemical_formula_structural             'Ni~13~ In~9~'
_chemical_formula_sum                    'In9 Ni13'
_chemical_name_mineral                   ?
_chemical_compound_source                ?
_chemical_name_structure_type            Ni~13~Ga~9~,mS44,12
_chemical_formula_weight                 1796.5

# Bibliographic data

_publ_section_title
;
A neutron and X-ray powder diffraction study of B8~2~ related superstructure phases in the Ni-In system
;
_journal_coden_ASTM                      JALCEU
_journal_name_full                       'J. Alloys Compd.'
_journal_year                            2006
_journal_volume                          424
_journal_page_first                      247
_journal_page_last                       254
_journal_language                        English
loop_
 _publ_author_name
 _publ_author_address
'Noren L.'
;
Australian National University (ANU)
Research School of Chemistry
Canberra
Australia
;
'Larsson A.K.'
;
Australian National University (ANU)
Department of Applied Mathematics
Canberra
Australia
;
'Withers R.L.'
;
Australian National University (ANU)
Research School of Chemistry
Canberra
Australia
;
'Rundlof H.'
;
Uppsala University
Studsvik Neutron Research Laboratory (NFL)
Studsvik/Nykoping
Sweden
;

# Standardized crystallographic data

_cell_length_a                           10.7215
_cell_length_b                           8.3905
_cell_length_c                           9.0376
_cell_angle_alpha                        90
_cell_angle_beta                         125.368
_cell_angle_gamma                        90
_cell_volume                             663
_cell_formula_units_Z                    2
_space_group_IT_number                   12
_space_group_name_H-M_alt                'C 1 2/m 1'
loop_
 _space_group_symop_id
 _space_group_symop_operation_xyz
 1 'x, y, z'
 2 '-x, -y, -z'
 3 '-x, y, -z'
 4 'x, -y, z'
 5 '1/2+x, 1/2+y, z'
 6 '1/2-x, 1/2-y, -z'
 7 '1/2-x, 1/2+y, -z'
 8 '1/2+x, 1/2-y, z'
loop_
 _atom_type_symbol
 Ni
 In
loop_
 _atom_site_label
 _atom_site_type_symbol
 _atom_site_symmetry_multiplicity
 _atom_site_Wyckoff_symbol
 _atom_site_fract_x
 _atom_site_fract_y
 _atom_site_fract_z
 _atom_site_occupancy
 Ni6 Ni 8 j 0.1965 0.258 0.1594 1
 In4 In 8 j 0.4554 0.2936 0.1848 1
 In2 In 4 i 0.177 0 0.617 1
 Ni5 Ni 4 i 0.2601 0 0.0169 1
 In3 In 4 i 0.282 0 0.332 1
 Ni4 Ni 4 i 0.5497 0 0.3222 1
 Ni3 Ni 4 h 0 0.2661 0.5 1
 Ni2 Ni 4 f 0.25 0.25 0.5 1
 In1 In 2 b 0 0.5 0 1
 Ni1 Ni 2 a 0 0 0 1


_exptl_crystal_colour                    ?
_exptl_crystal_density_meas              ?
_exptl_crystal_density_diffrn            9.00
_cell_measurement_temperature            298
_cell_measurement_radiation              neutrons
_cell_measurement_wavelength             1.4695
_pd_proc_wavelength                      1.4695
_cell_measurement_reflns_used            ?
_diffrn_ambient_temperature              298
_diffrn_measurement_device               'automatic diffractometer'
_diffrn_measurement_device_type
'Sweden, Studsvik Neutron Research Laboratory, R2 reactor'                    
_diffrn_radiation_type                   neutrons
_diffrn_radiation_wavelength             1.4695
_diffrn_reflns_number                    ?
_diffrn_reflns_theta_min                 2
_diffrn_reflns_theta_max                 69.96
_pd_proc_2theta_range_min                4
_pd_proc_2theta_range_max                139.92
_exptl_absorpt_coefficient_mu            ?
_exptl_absorpt_correction_type           ?
_computing_structure_solution            'starting values from the literature'
_refine_ls_number_parameters             34
_refine_ls_number_reflns                 ?
_refine_ls_R_factor_gt                   ?
_refine_ls_wR_factor_gt                  ?
_pd_proc_ls_proof_R_factor               0.0937
_pd_proc_ls_proof_wR_factor              0.0964
_refine_ls_R_I_factor                    ?

# End of data set 1522291

