##############################################################################
#                                                                            #
# Ga-Pt            # PtGa2 rt                                      # 1534785 #
#                                                                            #
##############################################################################
#                                                                            #
#                           Pearson's Crystal Data                           #
#      Crystal Structure Database for Inorganic Compounds (on DVD)           #
#                              Release 2022/23                               #
#                  Editors: Pierre Villars and Karin Cenzual                 #
#                                                                            #
#   Copyright (c) ASM International & Material Phases Data System (MPDS),    #
# Switzerland & National Institute for Materials Science (NIMS), Japan, 2022 #
#                   All rights reserved. Version 2022.07                     #
#                                                                            #
#   This copy of Pearson's Crystal Data is licensed to:                      #
#   University of Alberta, Chemistry Department, 1-5 Installations License         #
#                                                                            #
##############################################################################

data_1534785
_audit_creation_date                     2023-07-09
_audit_creation_method
;
Pearson's Crystal Data browser
;
#_database_code_PCD                      1534785
_database_code_PDF                       04-025-5136

# Entry summary

_chemical_formula_structural             'Pt Ga~1.99~'
_chemical_formula_sum                    'Ga1.99 Pt'
_chemical_name_mineral                   ?
_chemical_compound_source                ?
_chemical_name_structure_type            PtGa~1.99~,tI176,142
_chemical_formula_weight                 333.8

# Bibliographic data

_publ_section_title
;
Paths to stabilizing electronically aberrant compounds: A defect-stabilized polymorph and constrained atomic motion in PtGa~2~
;
_journal_coden_ASTM                      INOCAJ
_journal_name_full                       'Inorg. Chem.'
_journal_year                            2018
_journal_volume                          57
_journal_page_first                      13880
_journal_page_last                       13894
_journal_language                        English
loop_
 _publ_author_name
 _publ_author_address
'Mitchell Warden H.E.'
;
University of Wisconsin-Madison (UW-Madison)
Department of Chemistry
Madison
U.S.A. Wisconsin
;
'Voyles P.M.'
;
University of Wisconsin-Madison (UW-Madison)
Department of Material Science and Engineering
Madison
U.S.A. Wisconsin
;
'Fredrickson D.C.'
;
University of Wisconsin-Madison (UW-Madison)
Department of Chemistry
Madison
U.S.A. Wisconsin
;

# Standardized crystallographic data

_cell_length_a                           8.5418
_cell_length_b                           8.5418
_cell_length_c                           21.556
_cell_angle_alpha                        90
_cell_angle_beta                         90
_cell_angle_gamma                        90
_cell_volume                             1572.8
_cell_formula_units_Z                    32
_space_group_IT_number                   142
_space_group_name_H-M_alt                'I 41/a c d (origin choice 2)'
loop_
 _space_group_symop_id
 _space_group_symop_operation_xyz
 1 'x, y, z'
 2 '1/2-x, y, -z'
 3 '-x, 1/2-y, z'
 4 '-x, -y, -z'
 5 '-x, y, 1/2+z'
 6 '1/4-y, 1/4-x, 1/4-z'
 7 '1/4-y, -1/4-x, -1/4+z'
 8 '1/4-y, -1/4+x, 1/4+z'
 9 '-1/4-y, -1/4+x, 1/4-z'
 10 '1/2+x, -y, z'
 11 'x, -y, 1/2-z'
 12 'x, 1/2+y, -z'
 13 '1/4+y, 1/4-x, -1/4+z'
 14 '-1/4+y, 1/4-x, -1/4-z'
 15 '-1/4+y, 1/4+x, 1/4-z'
 16 '-1/4+y, -1/4+x, -1/4+z'
 17 '1/2+x, 1/2+y, 1/2+z'
 18 '1-x, 1/2+y, 1/2-z'
 19 '1/2-x, 1-y, 1/2+z'
 20 '1/2-x, 1/2-y, 1/2-z'
 21 '1/2-x, 1/2+y, 1+z'
 22 '3/4-y, 3/4-x, 3/4-z'
 23 '3/4-y, 1/4-x, 1/4+z'
 24 '3/4-y, 1/4+x, 3/4+z'
 25 '1/4-y, 1/4+x, 3/4-z'
 26 '1+x, 1/2-y, 1/2+z'
 27 '1/2+x, 1/2-y, 1-z'
 28 '1/2+x, 1+y, 1/2-z'
 29 '3/4+y, 3/4-x, 1/4+z'
 30 '1/4+y, 3/4-x, 1/4-z'
 31 '1/4+y, 3/4+x, 3/4-z'
 32 '1/4+y, 1/4+x, 1/4+z'
loop_
 _atom_type_symbol
 Ga
 Pt
loop_
 _atom_site_label
 _atom_site_type_symbol
 _atom_site_symmetry_multiplicity
 _atom_site_Wyckoff_symbol
 _atom_site_fract_x
 _atom_site_fract_y
 _atom_site_fract_z
 _atom_site_occupancy
 Ga2a Ga 32 g 0.047 0.0261 0.31212 0.941
 Ga1b Ga 32 g 0.225 0.204 0.3087 0.056
 Ga1a Ga 32 g 0.2752 0.2013 0.18891 0.944
 Ga2b Ga 32 g 0.282 0.293 0.0651 0.046
 Pt2a Pt 16 f 0.19101 0.44101 0.125 0.943
 Pt2b Pt 16 f 0.3088 0.5588 0.125 0.057
 Pt1 Pt 16 d 0 0.25 0.01855 1


_exptl_crystal_colour                    silver
_exptl_crystal_density_meas              ?
_exptl_crystal_density_diffrn            11.28
_cell_measurement_temperature            ?
_cell_measurement_radiation              ?
_cell_measurement_reflns_used            ?
_diffrn_ambient_temperature              ?
_diffrn_measurement_device               'automatic diffractometer'
_diffrn_measurement_device_type          'Oxford Diffraction Xcalibur E'
_diffrn_radiation_type                   'X-rays, Mo Ka'
_diffrn_radiation_wavelength             0.71073
_diffrn_reflns_number                    13620
_diffrn_reflns_theta_min                 3.78
_diffrn_reflns_theta_max                 36.88
_exptl_absorpt_coefficient_mu            97.483
_exptl_absorpt_correction_type           analytical
_computing_structure_solution            'charge flipping, Fourier synthesis'
_refine_ls_number_parameters             5
_refine_ls_number_reflns                 46
_refine_ls_R_factor_gt                   0.0556
_refine_ls_wR_factor_gt                  0.0674

# End of data set 1534785

