##############################################################################
#                                                                            #
# Fe-Ga            # FeGa3                                         # 1534773 #
#                                                                            #
##############################################################################
#                                                                            #
#                           Pearson's Crystal Data                           #
#      Crystal Structure Database for Inorganic Compounds (on DVD)           #
#                              Release 2022/23                               #
#                  Editors: Pierre Villars and Karin Cenzual                 #
#                                                                            #
#   Copyright (c) ASM International & Material Phases Data System (MPDS),    #
# Switzerland & National Institute for Materials Science (NIMS), Japan, 2022 #
#                   All rights reserved. Version 2022.07                     #
#                                                                            #
#   This copy of Pearson's Crystal Data is licensed to:                      #
#   University of Alberta, Chemistry Department, 1-5 Installations License         #
#                                                                            #
##############################################################################

data_1534773
_audit_creation_date                     2023-07-09
_audit_creation_method
;
Pearson's Crystal Data browser
;
#_database_code_PCD                      1534773
_database_code_PDF                       ?

# Entry summary

_chemical_formula_structural             'Fe Ga~3~'
_chemical_formula_sum                    'Fe Ga3'
_chemical_name_mineral                   ?
_chemical_compound_source                ?
_chemical_name_structure_type            IrIn~3~,tP16,136
_chemical_formula_weight                 265.0

# Bibliographic data

_publ_section_title
'On Fe-Fe dumbbells in the ideal and real structures of FeGa~3~'              
_journal_coden_ASTM                      INOCAJ
_journal_name_full                       'Inorg. Chem.'
_journal_year                            2018
_journal_volume                          57
_journal_page_first                      12908
_journal_page_last                       12919
_journal_language                        English
loop_
 _publ_author_name
 _publ_author_address
'Wagner F.R.'
;
Max Planck Society (MPG)
Max Planck Institut (MPI) fur Chemische Physik Fester Stoffe
Dresden
Germany
;
'Cardoso Gil R.'
;
Max Planck Society (MPG)
Max Planck Institut (MPI) fur Chemische Physik Fester Stoffe
Dresden
Germany
;
'Boucher B.'
;
Max Planck Society (MPG)
Max Planck Institut (MPI) fur Chemische Physik Fester Stoffe
Dresden
Germany
;
'Wagner Reetz M.'
;
Max Planck Society (MPG)
Max Planck Institut (MPI) fur Chemische Physik Fester Stoffe
Dresden
Germany
;
'Sichelschmidt J.'
;
Max Planck Society (MPG)
Max Planck Institut (MPI) fur Chemische Physik Fester Stoffe
Dresden
Germany
;
'Gille P.'
;
Munich Ludwig Maximilian University (LMU)
Munich
Germany
;
'Baenitz M.'
;
Max Planck Society (MPG)
Max Planck Institut (MPI) fur Chemische Physik Fester Stoffe
Dresden
Germany
;
'Grin Y.'
;
Max Planck Society (MPG)
Max Planck Institut (MPI) fur Chemische Physik Fester Stoffe
Dresden
Germany
;

# Standardized crystallographic data

_cell_length_a                           6.2702
_cell_length_b                           6.2702
_cell_length_c                           6.556
_cell_angle_alpha                        90
_cell_angle_beta                         90
_cell_angle_gamma                        90
_cell_volume                             257.8
_cell_formula_units_Z                    4
_space_group_IT_number                   136
_space_group_name_H-M_alt                'P 42/m n m'
loop_
 _space_group_symop_id
 _space_group_symop_operation_xyz
 1 'x, y, z'
 2 '1/2-x, 1/2+y, 1/2-z'
 3 '1/2-x, 1/2+y, 1/2+z'
 4 '-x, -y, -z'
 5 '-x, -y, z'
 6 '1/2-y, 1/2+x, 1/2-z'
 7 '1/2-y, 1/2+x, 1/2+z'
 8 '-y, -x, -z'
 9 '-y, -x, z'
 10 '1/2+x, 1/2-y, 1/2-z'
 11 '1/2+x, 1/2-y, 1/2+z'
 12 'x, y, -z'
 13 '1/2+y, 1/2-x, 1/2-z'
 14 '1/2+y, 1/2-x, 1/2+z'
 15 'y, x, -z'
 16 'y, x, z'
loop_
 _atom_type_symbol
 Ga
 Fe
loop_
 _atom_site_label
 _atom_site_type_symbol
 _atom_site_symmetry_multiplicity
 _atom_site_Wyckoff_symbol
 _atom_site_fract_x
 _atom_site_fract_y
 _atom_site_fract_z
 _atom_site_occupancy
 Ga2 Ga 8 j 0.34432 0.34432 0.26205 1
 Fe1 Fe 4 f 0.15628 0.15628 0 1
 Ga1 Ga 4 c 0 0.5 0 1


_exptl_crystal_colour                    gray
_exptl_crystal_density_meas              ?
_exptl_crystal_density_diffrn            6.83
_cell_measurement_temperature            ?
_cell_measurement_radiation              ?
_cell_measurement_reflns_used            ?
_diffrn_ambient_temperature              ?
_diffrn_measurement_device               'automatic diffractometer'
_diffrn_measurement_device_type          'Rigaku AFC7'
_diffrn_radiation_type                   'X-rays, Mo Ka'
_diffrn_radiation_wavelength             0.71073
_diffrn_reflns_number                    5382
_exptl_absorpt_coefficient_mu            ?
_exptl_absorpt_correction_type           ?
_computing_structure_solution            'direct methods, Fourier synthesis'
_refine_ls_number_parameters             18
_refine_ls_number_reflns                 545
_refine_ls_R_factor_gt                   0.030
_refine_ls_wR_factor_gt                  0.033

# End of data set 1534773

