##############################################################################
#                                                                            #
# In-Pt            # Pt5.5In2.5 rt                                 #  251007 #
#                                                                            #
##############################################################################
#                                                                            #
#                           Pearson's Crystal Data                           #
#      Crystal Structure Database for Inorganic Compounds (on DVD)           #
#                              Release 2022/23                               #
#                  Editors: Pierre Villars and Karin Cenzual                 #
#                                                                            #
#   Copyright (c) ASM International & Material Phases Data System (MPDS),    #
# Switzerland & National Institute for Materials Science (NIMS), Japan, 2022 #
#                   All rights reserved. Version 2022.07                     #
#                                                                            #
#   This copy of Pearson's Crystal Data is licensed to:                      #
#   University of Alberta, Chemistry Department, 1-5 Installations License         #
#                                                                            #
##############################################################################

data_251007
_audit_creation_date                     2023-07-09
_audit_creation_method
;
Pearson's Crystal Data browser
;
#_database_code_PCD                      251007
_database_code_PDF                       04-001-0556

# Entry summary

_chemical_formula_structural             'Pt~5.5~ In~2.5~'
_chemical_formula_sum                    'In2.50 Pt5.50'
_chemical_name_mineral                   ?
_chemical_compound_source                ?
_chemical_name_structure_type            Pt~5~Ga~3~,oS16,65
_chemical_formula_weight                 1360.0

# Bibliographic data

_publ_section_title
;
Uber die Struktur von Phasen mit Kupfer Unterstruktur in einigen T-B Legierungen (T= Ni, Pd, Pt; B= Ga, In, Tl, Pb, Sb, Bi)
;
_journal_coden_ASTM                      JCOMAH
_journal_name_full                       'J. Less-Common Met.'
_journal_year                            1969
_journal_volume                          17
_journal_page_first                      73
_journal_page_last                       90
_journal_language                        German
loop_
 _publ_author_name
 _publ_author_address
'Bhan S.'
;
Max Planck Society (MPG)
Max Planck Institut (MPI) fur Metallforschung
Stuttgart
Germany
;
'Schubert K.'
;
Max Planck Society (MPG)
Max Planck Institut (MPI) fur Metallforschung
Stuttgart
Germany
;

# Standardized crystallographic data

_cell_length_a                           8.18
_cell_length_b                           7.81
_cell_length_c                           4.09
_cell_angle_alpha                        90
_cell_angle_beta                         90
_cell_angle_gamma                        90
_cell_volume                             261.29
_cell_formula_units_Z                    2
_space_group_IT_number                   65
_space_group_name_H-M_alt                'C m m m'
loop_
 _space_group_symop_id
 _space_group_symop_operation_xyz
 1 'x, y, z'
 2 '-x, -y, -z'
 3 '-x, -y, z'
 4 '-x, y, -z'
 5 '-x, y, z'
 6 'x, -y, -z'
 7 'x, -y, z'
 8 'x, y, -z'
 9 '1/2+x, 1/2+y, z'
 10 '1/2-x, 1/2-y, -z'
 11 '1/2-x, 1/2-y, z'
 12 '1/2-x, 1/2+y, -z'
 13 '1/2-x, 1/2+y, z'
 14 '1/2+x, 1/2-y, -z'
 15 '1/2+x, 1/2-y, z'
 16 '1/2+x, 1/2+y, -z'
loop_
 _atom_type_symbol
 Pt
 In
loop_
 _atom_site_label
 _atom_site_type_symbol
 _atom_site_symmetry_multiplicity
 _atom_site_Wyckoff_symbol
 _atom_site_fract_x
 _atom_site_fract_y
 _atom_site_fract_z
 _atom_site_occupancy
 Pt3 Pt 4 j 0 0.256 0.5 1
 In In 4 h 0.24 0 0.5 1
 Pt2 Pt 4 e 0.25 0.25 0 1
 In1 In 2 b 0.5 0 0 0.5
 Pt2 Pt 2 b 0.5 0 0 0.5
 Pt1 Pt 2 a 0 0 0 1


_exptl_crystal_colour                    ?
_exptl_crystal_density_meas              ?
_exptl_crystal_density_diffrn            17.29
_cell_measurement_temperature            ?
_cell_measurement_radiation              'X-rays, Cu Ka'
_cell_measurement_reflns_used            ?
_diffrn_ambient_temperature              ?
_diffrn_measurement_device               'Guinier film'
_diffrn_measurement_device_type          ?
_diffrn_radiation_type                   'X-rays, Cu Ka'
_diffrn_reflns_number                    ?
_exptl_absorpt_coefficient_mu            ?
_exptl_absorpt_correction_type           ?
_computing_structure_solution            'starting values from the literature'
_refine_ls_number_parameters             ?
_refine_ls_number_reflns                 ?
_refine_ls_R_factor_gt                   ?
_refine_ls_wR_factor_gt                  ?
_pd_proc_ls_proof_R_factor               ?
_pd_proc_ls_proof_wR_factor              ?
_refine_ls_R_I_factor                    ?

# Published diffraction lines

loop_
 _refln_index_h
 _refln_index_k
 _refln_index_l
 _refln_d_spacing
 _refln_intensity_meas
 1 1 0 5.668 4
 2 0 0 4.103 12
 0 2 0 3.914 12
 1 1 1 3.324 2
 2 0 1 2.899 16
 2 2 0 2.83 10
 3 1 0 2.583 1
 1 3 0 2.484 6
 2 2 1 2.327 1000
 3 1 1 2.181 9
 1 3 1 2.122 1
 4 0 0 2.047 500
 0 4 0 1.955 200
 1 1 2 1.922 3
 2 0 2 1.829 5
 4 2 0 1.814 12
 2 4 0 1.764 5
 4 2 1 1.657 8
 2 4 1 1.619 10
 3 1 2 1.601 2
 1 3 2 1.579 6
 4 0 2 1.447 200
 1 5 1 1.437 2
 4 4 0 1.412 500
 3 3 2 1.387 2
 4 2 2 1.358 8
 2 4 2 1.336 4
 5 3 1 1.313 1
 6 0 1 1.292 3
 6 2 0 1.287 4
 5 1 2 1.261 1
 2 2 3 1.227 200

# End of data set 251007

