##############################################################################
#                                                                            #
# Co-Ge            # Co2Ge rt                                      #  251025 #
#                                                                            #
##############################################################################
#                                                                            #
#                           Pearson's Crystal Data                           #
#      Crystal Structure Database for Inorganic Compounds (on DVD)           #
#                              Release 2022/23                               #
#                  Editors: Pierre Villars and Karin Cenzual                 #
#                                                                            #
#   Copyright (c) ASM International & Material Phases Data System (MPDS),    #
# Switzerland & National Institute for Materials Science (NIMS), Japan, 2022 #
#                   All rights reserved. Version 2022.07                     #
#                                                                            #
#   This copy of Pearson's Crystal Data is licensed to:                      #
#   University of Alberta, Chemistry Department, 1-5 Installations License         #
#                                                                            #
##############################################################################

data_251025
_audit_creation_date                     2023-07-09
_audit_creation_method
;
Pearson's Crystal Data browser
;
#_database_code_PCD                      251025
_database_code_PDF                       ?

# Entry summary

_chemical_formula_structural             'Co~2~ Ge'
_chemical_formula_sum                    'Co2 Ge'
_chemical_name_mineral                   ?
_chemical_compound_source                ?
_chemical_name_structure_type            Co~2~Si-b,oP12,62
_chemical_formula_weight                 190.5

# Bibliographic data

_publ_section_title
;
Strukturuntersuchungen in einigen Mischungen T-B^3^-B^4^ (T= Mn, Fe, Co, Ir, Ni, Pd; B^3^= Al, Ga, Tl; B^4^= Si, Ge)
;
_journal_coden_ASTM                      JCOMAH
_journal_name_full                       'J. Less-Common Met.'
_journal_year                            1969
_journal_volume                          18
_journal_page_first                      175
_journal_page_last                       202
_journal_language                        German
loop_
 _publ_author_name
 _publ_author_address
'Panday P.K.'
;
Max Planck Society (MPG)
Max Planck Institut (MPI) fur Metallforschung
Stuttgart
Germany
;
'Schubert K.'
;
Max Planck Society (MPG)
Max Planck Institut (MPI) fur Metallforschung
Stuttgart
Germany
;

# Standardized crystallographic data

_cell_length_a                           5.02
_cell_length_b                           3.82
_cell_length_c                           7.26
_cell_angle_alpha                        90
_cell_angle_beta                         90
_cell_angle_gamma                        90
_cell_volume                             139.22
_cell_formula_units_Z                    4
_space_group_IT_number                   62
_space_group_name_H-M_alt                'P n m a'
loop_
 _space_group_symop_id
 _space_group_symop_operation_xyz
 1 'x, y, z'
 2 '1/2-x, -y, 1/2+z'
 3 '1/2-x, 1/2+y, 1/2+z'
 4 '-x, -y, -z'
 5 '-x, 1/2+y, -z'
 6 '1/2+x, 1/2-y, 1/2-z'
 7 '1/2+x, y, 1/2-z'
 8 'x, 1/2-y, z'

# Atomic positions taken from type-defining entry

loop_
 _atom_type_symbol
 Co
 Ge
loop_
 _atom_site_label
 _atom_site_type_symbol
 _atom_site_symmetry_multiplicity
 _atom_site_Wyckoff_symbol
 _atom_site_fract_x
 _atom_site_fract_y
 _atom_site_fract_z
 _atom_site_occupancy
 Co1 Co 4 c 0.038 0.25 0.718 1
 Co2 Co 4 c 0.174 0.25 0.062 1
 Ge1 Ge 4 c 0.202 0.25 0.389 1


_exptl_crystal_colour                    ?
_exptl_crystal_density_meas              ?
_exptl_crystal_density_diffrn            9.09
_cell_measurement_temperature            ?
_cell_measurement_radiation              'X-rays, Cu Ka'
_cell_measurement_reflns_used            ?
_diffrn_ambient_temperature              ?
_diffrn_measurement_device               'Guinier film'
_diffrn_measurement_device_type          ?
_diffrn_radiation_type                   ?
_diffrn_reflns_number                    ?
_exptl_absorpt_coefficient_mu            ?
_exptl_absorpt_correction_type           ?
_computing_structure_solution            ?
_refine_ls_number_parameters             ?
_refine_ls_number_reflns                 ?
_refine_ls_R_factor_gt                   ?
_refine_ls_wR_factor_gt                  ?

# Published diffraction lines

loop_
 _refln_index_h
 _refln_index_k
 _refln_index_l
 _refln_d_spacing
 _refln_intensity_meas
 1 0 1 3.381 1
 2 1 0 2.948 3
 1 1 1 2.809 2
 0 2 0 2.517 3
 2 1 1 2.333 1
 3 1 0 2.185 3
 0 2 1 2.103 7.5
 2 2 0 2.07 6
 3 0 1 2.047 8
 1 2 1 2.02 7
 0 0 2 1.913 7
 3 1 1 1.897 3.5
 3 2 0 1.747 3.5
 2 1 2 1.607 1
 3 2 1 1.589 3
 2 3 0 1.524 3
 4 2 0 1.475 3
 3 1 2 1.439 3
 2 2 2 1.406 3
 3 2 2 1.291 7
 1 4 0 1.24 7

# End of data set 251025

