##############################################################################
#                                                                            #
# In-Ni            # Ni13In9 rt                                    #  251179 #
#                                                                            #
##############################################################################
#                                                                            #
#                           Pearson's Crystal Data                           #
#      Crystal Structure Database for Inorganic Compounds (on DVD)           #
#                              Release 2022/23                               #
#                  Editors: Pierre Villars and Karin Cenzual                 #
#                                                                            #
#   Copyright (c) ASM International & Material Phases Data System (MPDS),    #
# Switzerland & National Institute for Materials Science (NIMS), Japan, 2022 #
#                   All rights reserved. Version 2022.07                     #
#                                                                            #
#   This copy of Pearson's Crystal Data is licensed to:                      #
#   University of Alberta, Chemistry Department, 1-5 Installations License         #
#                                                                            #
##############################################################################

data_251179
_audit_creation_date                     2023-07-09
_audit_creation_method
;
Pearson's Crystal Data browser
;
#_database_code_PCD                      251179
_database_code_PDF                       04-001-0605

# Entry summary

_chemical_formula_structural             'Ni~13~ In~9~'
_chemical_formula_sum                    'In9 Ni13'
_chemical_name_mineral                   ?
_chemical_compound_source                ?
_chemical_name_structure_type            Ni~13~Ga~9~,mS44,12
_chemical_formula_weight                 1796.5

# Bibliographic data

_publ_section_title
'Kristallstruktur von Ni~13~Ga~9~ und zwei Isotypen'                          
_journal_coden_ASTM                      JCOMAH
_journal_name_full                       'J. Less-Common Met.'
_journal_year                            1969
_journal_volume                          19
_journal_page_first                      245
_journal_page_last                       252
_journal_language                        German
loop_
 _publ_author_name
 _publ_author_address
'Ellner M.'
;
Max Planck Society (MPG)
Max Planck Institut (MPI) fur Metallforschung
Stuttgart
Germany
;
'Bhan S.'
;
Max Planck Society (MPG)
Max Planck Institut (MPI) fur Metallforschung
Stuttgart
Germany
;
'Schubert K.'
;
Max Planck Society (MPG)
Max Planck Institut (MPI) fur Metallforschung
Stuttgart
Germany
;

# Standardized crystallographic data

_cell_length_a                           10.3876
_cell_length_b                           8.329
_cell_length_c                           8.977
_cell_angle_alpha                        90
_cell_angle_beta                         125.338
_cell_angle_gamma                        90
_cell_volume                             633.58
_cell_formula_units_Z                    2
_space_group_IT_number                   12
_space_group_name_H-M_alt                'C 1 2/m 1'
loop_
 _space_group_symop_id
 _space_group_symop_operation_xyz
 1 'x, y, z'
 2 '-x, -y, -z'
 3 '-x, y, -z'
 4 'x, -y, z'
 5 '1/2+x, 1/2+y, z'
 6 '1/2-x, 1/2-y, -z'
 7 '1/2-x, 1/2+y, -z'
 8 '1/2+x, 1/2-y, z'

# Atomic positions taken from type-defining entry

loop_
 _atom_type_symbol
 Ni
 In
loop_
 _atom_site_label
 _atom_site_type_symbol
 _atom_site_symmetry_multiplicity
 _atom_site_Wyckoff_symbol
 _atom_site_fract_x
 _atom_site_fract_y
 _atom_site_fract_z
 _atom_site_occupancy
 Ni1 Ni 8 j 0.193 0.251 0.155 1
 In1 In 8 j 0.457 0.273 0.182 1
 In2 In 4 i 0.172 0 0.604 1
 Ni2 Ni 4 i 0.248 0 0.006 1
 In3 In 4 i 0.299 0 0.336 1
 Ni3 Ni 4 i 0.555 0 0.335 1
 Ni4 Ni 4 h 0 0.248 0.5 1
 Ni5 Ni 4 f 0.25 0.25 0.5 1
 In4 In 2 b 0 0.5 0 1
 Ni6 Ni 2 a 0 0 0 1


_exptl_crystal_colour                    ?
_exptl_crystal_density_meas              ?
_exptl_crystal_density_diffrn            9.42
_cell_measurement_temperature            ?
_cell_measurement_radiation              'X-rays, Cu Ka'
_cell_measurement_reflns_used            ?
_diffrn_ambient_temperature              ?
_diffrn_measurement_device               'Guinier film'
_diffrn_measurement_device_type          ?
_diffrn_radiation_type                   ?
_diffrn_reflns_number                    ?
_exptl_absorpt_coefficient_mu            ?
_exptl_absorpt_correction_type           ?
_computing_structure_solution            ?
_refine_ls_number_parameters             ?
_refine_ls_number_reflns                 ?
_refine_ls_R_factor_gt                   ?
_refine_ls_wR_factor_gt                  ?

# Published diffraction lines

loop_
 _refln_index_h
 _refln_index_k
 _refln_index_l
 _refln_d_spacing
 _refln_intensity_meas
 4 0 2 3.65 3
 0 2 1 3.258 1
 -1 1 1 3.126 4.5
 4 0 1 2.996 6
 2 2 0 2.972 7
 4 2 2 2.753 6
 5 1 2 2.673 6
 1 3 0 2.641 5.5
 0 0 2 2.599 7
 -2 0 1 2.448 2
 4 2 1 2.432 4.5
 3 3 1 2.353 6
 6 0 2 2.209 5.5
 5 1 1 2.163 5
 -1 3 1 2.146 5
 4 0 0 2.115 8.5
 0 4 0 2.084 7.5
 7 1 3 1.997 3.5
 3 3 0 1.98 5
 4 2 0 1.888 3
 2 4 0 1.871 3
 6 0 1 1.78 1
 7 1 2 1.752 3
 5 3 1 1.743 2
 8 0 3 1.727 2
 4 4 1 1.711 5
 5 1 0 1.663 2
 -1 3 2 1.654 2
 6 2 1 1.637 6
 0 4 2 1.626 5
 8 2 3 1.596 2.5
 -2 4 1 1.589 3
 9 1 4 1.577 5
 -4 0 1 1.565 5.5
 6 4 2 1.517 4.5
 7 3 2 1.507 5
 8 0 2 1.498 6
 4 4 0 1.487 7
 -4 2 1 1.467 4.5
 7 1 1 1.452 3
 5 3 0 1.447 1
 3 5 0 1.436 5
 6 0 0 1.413 7
 10 0 4 1.41 3
 9 3 4 1.392 2
 5 5 1 1.337 5.5
 0 4 3 1.331 2
 2 6 0 1.32 2
 -5 1 1 1.308 3
 11 1 5 1.305 6
 0 0 4 1.3 7

# End of data set 251179

