##############################################################################
#                                                                            #
# Ge-Ni            # Ni2Ge rt                                      #  251795 #
#                                                                            #
##############################################################################
#                                                                            #
#                           Pearson's Crystal Data                           #
#      Crystal Structure Database for Inorganic Compounds (on DVD)           #
#                              Release 2022/23                               #
#                  Editors: Pierre Villars and Karin Cenzual                 #
#                                                                            #
#   Copyright (c) ASM International & Material Phases Data System (MPDS),    #
# Switzerland & National Institute for Materials Science (NIMS), Japan, 2022 #
#                   All rights reserved. Version 2022.07                     #
#                                                                            #
#   This copy of Pearson's Crystal Data is licensed to:                      #
#   University of Alberta, Chemistry Department, 1-5 Installations License         #
#                                                                            #
##############################################################################

data_251795
_audit_creation_date                     2023-07-09
_audit_creation_method
;
Pearson's Crystal Data browser
;
#_database_code_PCD                      251795
_database_code_PDF                       04-001-1173

# Entry summary

_chemical_formula_structural             'Ni~2~ Ge'
_chemical_formula_sum                    'Ge Ni2'
_chemical_name_mineral                   ?
_chemical_compound_source                ?
_chemical_name_structure_type            Co~2~Si-b,oP12,62
_chemical_formula_weight                 190.0

# Bibliographic data

_publ_section_title
'Zur Struktur der Mischung Nickel-Germanium'                                  
_journal_coden_ASTM                      JCOMAH
_journal_name_full                       'J. Less-Common Met.'
_journal_year                            1971
_journal_volume                          24
_journal_page_first                      23
_journal_page_last                       40
_journal_language                        German
loop_
 _publ_author_name
 _publ_author_address
'Ellner M.'
;
Max Planck Society (MPG)
Max Planck Institut (MPI) fur Metallforschung
Stuttgart
Germany
;
'Godecke T.'
;
Max Planck Society (MPG)
Max Planck Institut (MPI) fur Metallforschung
Stuttgart
Germany
;
'Schubert K.'
;
Max Planck Society (MPG)
Max Planck Institut (MPI) fur Metallforschung
Stuttgart
Germany
;

# Standardized crystallographic data

_cell_length_a                           5.113
_cell_length_b                           3.83
_cell_length_c                           7.264
_cell_angle_alpha                        90
_cell_angle_beta                         90
_cell_angle_gamma                        90
_cell_volume                             142.25
_cell_formula_units_Z                    4
_space_group_IT_number                   62
_space_group_name_H-M_alt                'P n m a'
loop_
 _space_group_symop_id
 _space_group_symop_operation_xyz
 1 'x, y, z'
 2 '1/2-x, -y, 1/2+z'
 3 '1/2-x, 1/2+y, 1/2+z'
 4 '-x, -y, -z'
 5 '-x, 1/2+y, -z'
 6 '1/2+x, 1/2-y, 1/2-z'
 7 '1/2+x, y, 1/2-z'
 8 'x, 1/2-y, z'
loop_
 _atom_type_symbol
 Ni
 Ge
loop_
 _atom_site_label
 _atom_site_type_symbol
 _atom_site_symmetry_multiplicity
 _atom_site_Wyckoff_symbol
 _atom_site_fract_x
 _atom_site_fract_y
 _atom_site_fract_z
 _atom_site_occupancy
 Ni2 Ni 4 c 0.038 0.25 0.705 1
 Ni1 Ni 4 c 0.176 0.25 0.061 1
 Ge Ge 4 c 0.227 0.25 0.387 1


_exptl_crystal_colour                    ?
_exptl_crystal_density_meas              ?
_exptl_crystal_density_diffrn            8.87
_cell_measurement_temperature            ?
_cell_measurement_radiation              'X-rays, Cu Ka'
_cell_measurement_reflns_used            ?
_diffrn_ambient_temperature              ?
_diffrn_measurement_device               'Guinier film'
_diffrn_measurement_device_type          ?
_diffrn_radiation_type                   ?
_diffrn_reflns_number                    ?
_exptl_absorpt_coefficient_mu            ?
_exptl_absorpt_correction_type           ?
_computing_structure_solution            ?
_refine_ls_number_parameters             ?
_refine_ls_number_reflns                 ?
_refine_ls_R_factor_gt                   ?
_refine_ls_wR_factor_gt                  ?

# Published diffraction lines

loop_
 _refln_index_h
 _refln_index_k
 _refln_index_l
 _refln_d_spacing
 _refln_intensity_meas
 0 1 1 3.391 2
 1 0 2 2.965 4
 1 1 1 2.838 1
 2 0 0 2.558 4
 1 1 2 2.346 6
 1 0 3 2.19 6
 2 1 0 2.131 7
 2 0 2 2.094 6.5
 0 1 3 2.048 8
 2 1 1 2.042 8
 0 2 0 1.919 7.5
 1 1 3 1.903 7
 2 1 2 1.836 1
 0 0 4 1.819 2
 2 0 3 1.76 6
 1 0 4 1.713 1
 3 0 1 1.661 3
 1 2 2 1.609 3
 2 1 3 1.598 5
 1 1 4 1.564 3
 3 0 2 1.544 4
 2 2 0 1.534 3
 3 1 1 1.524 3
 2 0 4 1.481 5
 1 2 3 1.442 4.5
 3 1 2 1.433 1
 2 2 2 1.413 6
 1 0 5 1.399 4
 0 1 5 1.359 1
 0 2 4 1.319 1.5
 1 1 5 1.314 2
 2 2 3 1.296 5

# End of data set 251795

