##############################################################################
#                                                                            #
# Ge-Rh            # RhGe hp                                       #  260113 #
#                                                                            #
##############################################################################
#                                                                            #
#                           Pearson's Crystal Data                           #
#      Crystal Structure Database for Inorganic Compounds (on DVD)           #
#                              Release 2022/23                               #
#                  Editors: Pierre Villars and Karin Cenzual                 #
#                                                                            #
#   Copyright (c) ASM International & Material Phases Data System (MPDS),    #
# Switzerland & National Institute for Materials Science (NIMS), Japan, 2022 #
#                   All rights reserved. Version 2022.07                     #
#                                                                            #
#   This copy of Pearson's Crystal Data is licensed to:                      #
#   University of Alberta, Chemistry Department, 1-5 Installations License         #
#                                                                            #
##############################################################################

data_260113
_audit_creation_date                     2023-07-09
_audit_creation_method
;
Pearson's Crystal Data browser
;
#_database_code_PCD                      260113
_database_code_PDF                       04-001-1758

# Entry summary

_chemical_formula_structural             'Rh Ge'
_chemical_formula_sum                    'Ge Rh'
_chemical_name_mineral                   ?
_chemical_compound_source                ?
_chemical_name_structure_type            FeSi,cP8,198
_chemical_formula_weight                 175.5

# Bibliographic data

_publ_section_title
;
The polymorphism of transition metal monogermanides at high pressures and temperatures
;
_journal_coden_ASTM                      JCOMAH
_journal_name_full                       'J. Less-Common Met.'
_journal_year                            1982
_journal_volume                          87
_journal_page_first                      53
_journal_page_last                       57
_journal_language                        English
loop_
 _publ_author_name
 _publ_author_address
'Larchev V.I.'
;
Russian Academy of Sciences (RAS)
Vereshchagin V.V. Institute of High Pressure Physics
Moscow-Troitsk
Russia
;
'Popova S.V.'
;
Russian Academy of Sciences (RAS)
Vereshchagin V.V. Institute of High Pressure Physics
Moscow-Troitsk
Russia
;

# Standardized crystallographic data

_cell_length_a                           4.862
_cell_length_b                           4.862
_cell_length_c                           4.862
_cell_angle_alpha                        90
_cell_angle_beta                         90
_cell_angle_gamma                        90
_cell_volume                             114.93
_cell_formula_units_Z                    4
_space_group_IT_number                   198
_space_group_name_H-M_alt                'P 21 3'
loop_
 _space_group_symop_id
 _space_group_symop_operation_xyz
 1 'x, y, z'
 2 '1/2-x, -y, 1/2+z'
 3 '-x, 1/2+y, 1/2-z'
 4 '1/2-y, -z, 1/2+x'
 5 '-y, 1/2+z, 1/2-x'
 6 '1/2-z, -x, 1/2+y'
 7 '-z, 1/2+x, 1/2-y'
 8 '1/2+x, 1/2-y, -z'
 9 '1/2+y, 1/2-z, -x'
 10 'y, z, x'
 11 '1/2+z, 1/2-x, -y'
 12 'z, x, y'
loop_
 _atom_type_symbol
 Ge
 Rh
loop_
 _atom_site_label
 _atom_site_type_symbol
 _atom_site_symmetry_multiplicity
 _atom_site_Wyckoff_symbol
 _atom_site_fract_x
 _atom_site_fract_y
 _atom_site_fract_z
 _atom_site_occupancy
 Ge Ge 4 a 0.09 0.09 0.09 1
 Rh Rh 4 a 0.385 0.385 0.385 1


_exptl_crystal_colour                    ?
_exptl_crystal_density_meas              10.0(2)
_exptl_crystal_density_diffrn            10.14
_cell_measurement_temperature            ?
_cell_measurement_radiation              ?
_cell_measurement_reflns_used            ?
_diffrn_ambient_temperature              ?
_diffrn_measurement_device               diffractometer
_diffrn_measurement_device_type          'Rigaku Geigerflex'
_diffrn_radiation_type                   'X-rays, Cu Ka'
_diffrn_reflns_number                    18
_exptl_absorpt_coefficient_mu            ?
_exptl_absorpt_correction_type           ?
_computing_structure_solution            'Patterson synthesis'
_refine_ls_number_parameters             ?
_refine_ls_number_reflns                 ?
_refine_ls_R_factor_gt                   0.154
_refine_ls_wR_factor_gt                  ?
_pd_proc_ls_proof_R_factor               ?
_pd_proc_ls_proof_wR_factor              ?
_refine_ls_R_I_factor                    ?

# Published diffraction lines

loop_
 _refln_index_h
 _refln_index_k
 _refln_index_l
 _refln_d_spacing
 _refln_intensity_meas
 1 1 0 3.437 7
 1 1 1 2.808 22
 2 0 0 2.426 7
 2 1 0 2.173 100
 2 1 1 1.983 70
 2 2 1 1.621 11
 3 1 0 1.538 6
 3 1 1 1.466 25
 2 2 2 1.404 7
 3 2 0 1.349 9
 3 2 1 1.301 55
 4 0 0 1.216 16
 4 1 0 1.18 10
 4 1 1 1.146 10
 3 3 1 1.114 16
 4 2 0 1.087 2
 4 2 1 1.062 40
 3 3 2 1.038 7

# End of data set 260113

