##############################################################################
#                                                                            #
# Ge-Rh            # RhGe4 hp                                      #  260293 #
#                                                                            #
##############################################################################
#                                                                            #
#                           Pearson's Crystal Data                           #
#      Crystal Structure Database for Inorganic Compounds (on DVD)           #
#                              Release 2022/23                               #
#                  Editors: Pierre Villars and Karin Cenzual                 #
#                                                                            #
#   Copyright (c) ASM International & Material Phases Data System (MPDS),    #
# Switzerland & National Institute for Materials Science (NIMS), Japan, 2022 #
#                   All rights reserved. Version 2022.07                     #
#                                                                            #
#   This copy of Pearson's Crystal Data is licensed to:                      #
#   University of Alberta, Chemistry Department, 1-5 Installations License         #
#                                                                            #
##############################################################################

data_260293
_audit_creation_date                     2023-07-09
_audit_creation_method
;
Pearson's Crystal Data browser
;
#_database_code_PCD                      260293
_database_code_PDF                       04-001-1930

# Entry summary

_chemical_formula_structural             'Rh Ge~4~'
_chemical_formula_sum                    'Ge4 Rh'
_chemical_name_mineral                   ?
_chemical_compound_source                ?
_chemical_name_structure_type            IrGe~4~,hP15,152
_chemical_formula_weight                 393.3

# Bibliographic data

_publ_section_title
'The new phases IrSn~4~ and RhGe~4~ formed by high pressure treatment'        
_journal_coden_ASTM                      JCOMAH
_journal_name_full                       'J. Less-Common Met.'
_journal_year                            1984
_journal_volume                          98
_journal_page_first                      L1
_journal_page_last                       L3
_journal_language                        English
loop_
 _publ_author_name
 _publ_author_address
'Larchev V.I.'
;
Russian Academy of Sciences (RAS)
Vereshchagin V.V. Institute of High Pressure Physics
Moscow-Troitsk
Russia
;
'Popova S.V.'
;
Russian Academy of Sciences (RAS)
Vereshchagin V.V. Institute of High Pressure Physics
Moscow-Troitsk
Russia
;

# Standardized crystallographic data

_cell_length_a                           6.19
_cell_length_b                           6.19
_cell_length_c                           7.802
_cell_angle_alpha                        90
_cell_angle_beta                         90
_cell_angle_gamma                        120
_cell_volume                             258.89
_cell_formula_units_Z                    3
_space_group_IT_number                   152
_space_group_name_H-M_alt                'P 31 2 1'
loop_
 _space_group_symop_id
 _space_group_symop_operation_xyz
 1 'x, y, z'
 2 '-x+y, -x, -1/3+z'
 3 '-x, -x+y, 1/3-z'
 4 '-y, x-y, 1/3+z'
 5 'x-y, -y, -1/3-z'
 6 'y, x, -z'

# Atomic positions taken from type-defining entry

loop_
 _atom_type_symbol
 Ge
 Rh
loop_
 _atom_site_label
 _atom_site_type_symbol
 _atom_site_symmetry_multiplicity
 _atom_site_Wyckoff_symbol
 _atom_site_fract_x
 _atom_site_fract_y
 _atom_site_fract_z
 _atom_site_occupancy
 Ge1 Ge 6 c 0.221 0.489 0.444 1
 Rh1 Rh 3 b 0.318 0 0.833333 1
 Ge2 Ge 3 a 0.077 0 0.333333 1
 Ge3 Ge 3 a 0.610 0 0.333333 1


_exptl_crystal_colour                    ?
_exptl_crystal_density_meas              7.5(1)
_exptl_crystal_density_diffrn            7.57
_cell_measurement_temperature            ?
_cell_measurement_radiation              'X-rays, Cu Ka'
_cell_measurement_reflns_used            ?
_diffrn_ambient_temperature              ?
_diffrn_measurement_device               diffractometer
_diffrn_measurement_device_type          ?
_diffrn_radiation_type                   ?
_diffrn_reflns_number                    ?
_exptl_absorpt_coefficient_mu            ?
_exptl_absorpt_correction_type           ?
_computing_structure_solution            ?
_refine_ls_number_parameters             ?
_refine_ls_number_reflns                 ?
_refine_ls_R_factor_gt                   ?
_refine_ls_wR_factor_gt                  ?

# Published diffraction lines

loop_
 _refln_index_h
 _refln_index_k
 _refln_index_l
 _refln_d_spacing
 _refln_intensity_meas
 1 0 0 5.36 5
 1 0 1 4.42 50
 0 0 2 3.91 10
 1 0 2 3.15 60
 1 1 0 3.09 30
 1 1 1 2.877 35
 2 0 0 2.685 5
 0 0 3 2.605 20
 2 0 1 2.53 100
 1 1 2 2.426 60
 1 0 3 2.341 50
 2 0 2 2.207 45
 2 1 0 2.027 60
 1 1 3 1.993 90
 2 1 1 1.959 100
 2 0 3 1.864 35
 1 0 4 1.834 50
 2 1 2 1.797 50
 1 1 4 1.652 5
 3 0 2 1.627 5
 2 1 3 1.599 5
 2 2 0 1.546 15
 2 2 1 1.519 5
 1 0 5 1.499 5

# End of data set 260293

