##############################################################################
#                                                                            #
# Pt-Sn            # PtSn4                                         #  260368 #
#                                                                            #
##############################################################################
#                                                                            #
#                           Pearson's Crystal Data                           #
#      Crystal Structure Database for Inorganic Compounds (on DVD)           #
#                              Release 2022/23                               #
#                  Editors: Pierre Villars and Karin Cenzual                 #
#                                                                            #
#   Copyright (c) ASM International & Material Phases Data System (MPDS),    #
# Switzerland & National Institute for Materials Science (NIMS), Japan, 2022 #
#                   All rights reserved. Version 2022.07                     #
#                                                                            #
#   This copy of Pearson's Crystal Data is licensed to:                      #
#   University of Alberta, Chemistry Department, 1-5 Installations License         #
#                                                                            #
##############################################################################

data_260368
_audit_creation_date                     2023-07-09
_audit_creation_method
;
Pearson's Crystal Data browser
;
#_database_code_PCD                      260368
_database_code_PDF                       04-001-1996

# Entry summary

_chemical_formula_structural             'Pt Sn~4~'
_chemical_formula_sum                    'Pt Sn4'
_chemical_name_mineral                   ?
_chemical_compound_source                ?
_chemical_name_structure_type            PtSn~4~,oS20,68
_chemical_formula_weight                 669.8

# Bibliographic data

_publ_section_title
;
X-ray investigations of crystallization and thermal expansion of AuSn~4~, PdSn~4~ and PtSn~4~
;
_journal_coden_ASTM                      JCOMAH
_journal_name_full                       'J. Less-Common Met.'
_journal_year                            1985
_journal_volume                          109
_journal_page_first                      339
_journal_page_last                       344
_journal_language                        English
loop_
 _publ_author_name
 _publ_author_address
'Kubiak R.'
;
Polish Academy of Sciences (PAN)
Trzebiatowski W. Institute of Low Temperature and Structure Research
Wroclaw
Poland
;
'Wolcyrz M.'
;
Polish Academy of Sciences (PAN)
Trzebiatowski W. Institute of Low Temperature and Structure Research
Wroclaw
Poland
;

# Standardized crystallographic data

_cell_length_a                           6.419
_cell_length_b                           11.3666
_cell_length_c                           6.3823
_cell_angle_alpha                        90
_cell_angle_beta                         90
_cell_angle_gamma                        90
_cell_volume                             465.67
_cell_formula_units_Z                    4
_space_group_IT_number                   68
_space_group_name_H-M_alt                'C c c e (origin choice 2)'
loop_
 _space_group_symop_id
 _space_group_symop_operation_xyz
 1 'x, y, z'
 2 '-x, 1/2-y, z'
 3 '-x, -y, -z'
 4 '-x, 1/2+y, 1/2+z'
 5 '-x, y, 1/2-z'
 6 'x, 1/2-y, 1/2-z'
 7 'x, -y, 1/2+z'
 8 'x, 1/2+y, -z'
 9 '1/2+x, 1/2+y, z'
 10 '1/2-x, 1-y, z'
 11 '1/2-x, 1/2-y, -z'
 12 '1/2-x, 1+y, 1/2+z'
 13 '1/2-x, 1/2+y, 1/2-z'
 14 '1/2+x, 1-y, 1/2-z'
 15 '1/2+x, 1/2-y, 1/2+z'
 16 '1/2+x, 1+y, -z'

# Atomic positions taken from type-defining entry

loop_
 _atom_type_symbol
 Sn
 Pt
loop_
 _atom_site_label
 _atom_site_type_symbol
 _atom_site_symmetry_multiplicity
 _atom_site_Wyckoff_symbol
 _atom_site_fract_x
 _atom_site_fract_y
 _atom_site_fract_z
 _atom_site_occupancy
 Sn1 Sn 16 i 0.327 0.125 0.077 1
 Pt1 Pt 4 a 0 0.25 0.25 1


_exptl_crystal_colour                    ?
_exptl_crystal_density_meas              ?
_exptl_crystal_density_diffrn            9.55
_cell_measurement_temperature            298
_cell_measurement_radiation              'X-rays, Cu Ka1'
_cell_measurement_wavelength             1.54056
_cell_measurement_reflns_used            ?
_diffrn_ambient_temperature              ?
_diffrn_measurement_device               diffractometer
_diffrn_measurement_device_type          ?
_diffrn_radiation_type                   ?
_diffrn_reflns_number                    ?
_exptl_absorpt_coefficient_mu            ?
_exptl_absorpt_correction_type           ?
_computing_structure_solution            ?
_refine_ls_number_parameters             ?
_refine_ls_number_reflns                 ?
_refine_ls_R_factor_gt                   ?
_refine_ls_wR_factor_gt                  ?

# End of data set 260368

