##############################################################################
#                                                                            #
# Pd-Sn            # PdSn4                                         #  260367 #
#                                                                            #
##############################################################################
#                                                                            #
#                           Pearson's Crystal Data                           #
#      Crystal Structure Database for Inorganic Compounds (on DVD)           #
#                              Release 2022/23                               #
#                  Editors: Pierre Villars and Karin Cenzual                 #
#                                                                            #
#   Copyright (c) ASM International & Material Phases Data System (MPDS),    #
# Switzerland & National Institute for Materials Science (NIMS), Japan, 2022 #
#                   All rights reserved. Version 2022.07                     #
#                                                                            #
#   This copy of Pearson's Crystal Data is licensed to:                      #
#   University of Alberta, Chemistry Department, 1-5 Installations License         #
#                                                                            #
##############################################################################

data_260367
_audit_creation_date                     2023-07-09
_audit_creation_method
;
Pearson's Crystal Data browser
;
#_database_code_PCD                      260367
_database_code_PDF                       04-001-1995

# Entry summary

_chemical_formula_structural             'Pd Sn~4~'
_chemical_formula_sum                    'Pd Sn4'
_chemical_name_mineral                   ?
_chemical_compound_source                ?
_chemical_name_structure_type            AuSn~4~,oS20,41
_chemical_formula_weight                 581.2

# Bibliographic data

_publ_section_title
;
X-ray investigations of crystallization and thermal expansion of AuSn~4~, PdSn~4~ and PtSn~4~
;
_journal_coden_ASTM                      JCOMAH
_journal_name_full                       'J. Less-Common Met.'
_journal_year                            1985
_journal_volume                          109
_journal_page_first                      339
_journal_page_last                       344
_journal_language                        English
loop_
 _publ_author_name
 _publ_author_address
'Kubiak R.'
;
Polish Academy of Sciences (PAN)
Trzebiatowski W. Institute of Low Temperature and Structure Research
Wroclaw
Poland
;
'Wolcyrz M.'
;
Polish Academy of Sciences (PAN)
Trzebiatowski W. Institute of Low Temperature and Structure Research
Wroclaw
Poland
;

# Standardized crystallographic data

_cell_length_a                           6.3888
_cell_length_b                           6.4415
_cell_length_c                           11.4462
_cell_angle_alpha                        90
_cell_angle_beta                         90
_cell_angle_gamma                        90
_cell_volume                             471.05
_cell_formula_units_Z                    4
_space_group_IT_number                   41
_space_group_name_H-M_alt                'A e a 2'
loop_
 _space_group_symop_id
 _space_group_symop_operation_xyz
 1 'x, y, z'
 2 '1/2-x, y, 1/2+z'
 3 '-x, -y, z'
 4 '1/2+x, -y, 1/2+z'
 5 'x, 1/2+y, 1/2+z'
 6 '1/2-x, 1/2+y, 1+z'
 7 '-x, 1/2-y, 1/2+z'
 8 '1/2+x, 1/2-y, 1+z'

# Atomic positions taken from type-defining entry

loop_
 _atom_type_symbol
 Sn
 Pd
loop_
 _atom_site_label
 _atom_site_type_symbol
 _atom_site_symmetry_multiplicity
 _atom_site_Wyckoff_symbol
 _atom_site_fract_x
 _atom_site_fract_y
 _atom_site_fract_z
 _atom_site_occupancy
 Sn1 Sn 8 b 0.1639 0.3395 0.1205 1
 Sn2 Sn 8 b 0.1688 0.1642 0.3591 1
 Pd1 Pd 4 a 0 0 0.0 1


_exptl_crystal_colour                    ?
_exptl_crystal_density_meas              ?
_exptl_crystal_density_diffrn            8.20
_cell_measurement_temperature            298
_cell_measurement_radiation              'X-rays, Cu Ka1'
_cell_measurement_wavelength             1.54056
_cell_measurement_reflns_used            ?
_diffrn_ambient_temperature              ?
_diffrn_measurement_device               diffractometer
_diffrn_measurement_device_type          ?
_diffrn_radiation_type                   ?
_diffrn_reflns_number                    ?
_exptl_absorpt_coefficient_mu            ?
_exptl_absorpt_correction_type           ?
_computing_structure_solution            ?
_refine_ls_number_parameters             ?
_refine_ls_number_reflns                 ?
_refine_ls_R_factor_gt                   ?
_refine_ls_wR_factor_gt                  ?

# End of data set 260367

