##############################################################################
#                                                                            #
# Os-Si            # OsSi2 stab                                    #  260809 #
#                                                                            #
##############################################################################
#                                                                            #
#                           Pearson's Crystal Data                           #
#      Crystal Structure Database for Inorganic Compounds (on DVD)           #
#                              Release 2022/23                               #
#                  Editors: Pierre Villars and Karin Cenzual                 #
#                                                                            #
#   Copyright (c) ASM International & Material Phases Data System (MPDS),    #
# Switzerland & National Institute for Materials Science (NIMS), Japan, 2022 #
#                   All rights reserved. Version 2022.07                     #
#                                                                            #
#   This copy of Pearson's Crystal Data is licensed to:                      #
#   University of Alberta, Chemistry Department, 1-5 Installations License         #
#                                                                            #
##############################################################################

data_260809
_audit_creation_date                     2023-07-09
_audit_creation_method
;
Pearson's Crystal Data browser
;
#_database_code_PCD                      260809
_database_code_PDF                       04-001-2398

# Entry summary

_chemical_formula_structural             'Os Si~2~'
_chemical_formula_sum                    'Os Si2'
_chemical_name_mineral                   ?
_chemical_compound_source                ?
_chemical_name_structure_type            OsGe~2~,mS12,12
_chemical_formula_weight                 246.4

# Bibliographic data

_publ_section_title                      'The osmium-silicon phase diagram'
_journal_coden_ASTM                      JCOMAH
_journal_name_full                       'J. Less-Common Met.'
_journal_year                            1988
_journal_volume                          144
_journal_page_first                      341
_journal_page_last                       350
_journal_language                        English
loop_
 _publ_author_name
 _publ_author_address
'Schellenberg I.'
;
Geneva University (UNIGE)
Departement de Physique de la Matiere Condensee (DPMC)
Geneva
Switzerland
;
'Braun H.F.'
;
Bayreuth University
Laboratorium fur Experimentalphysik
Bayreuth
Germany
;
'Muller J.'
;
Geneva University (UNIGE)
Departement de Physique de la Matiere Condensee (DPMC)
Geneva
Switzerland
;

# Standardized crystallographic data

_cell_length_a                           8.661
_cell_length_b                           2.984
_cell_length_c                           7.472
_cell_angle_alpha                        90
_cell_angle_beta                         119.01
_cell_angle_gamma                        90
_cell_volume                             168.88
_cell_formula_units_Z                    4
_space_group_IT_number                   12
_space_group_name_H-M_alt                'C 1 2/m 1'
loop_
 _space_group_symop_id
 _space_group_symop_operation_xyz
 1 'x, y, z'
 2 '-x, -y, -z'
 3 '-x, y, -z'
 4 'x, -y, z'
 5 '1/2+x, 1/2+y, z'
 6 '1/2-x, 1/2-y, -z'
 7 '1/2-x, 1/2+y, -z'
 8 '1/2+x, 1/2-y, z'

# Atomic positions taken from type-defining entry

loop_
 _atom_type_symbol
 Si
 Os
loop_
 _atom_site_label
 _atom_site_type_symbol
 _atom_site_symmetry_multiplicity
 _atom_site_Wyckoff_symbol
 _atom_site_fract_x
 _atom_site_fract_y
 _atom_site_fract_z
 _atom_site_occupancy
 Si1 Si 4 i 0.143 0 0.531 1
 Os1 Os 4 i 0.154 0 0.200 1
 Si2 Si 4 i 0.399 0 0.112 1


_exptl_crystal_colour                    ?
_exptl_crystal_density_meas              ?
_exptl_crystal_density_diffrn            9.69
_cell_measurement_temperature            ?
_cell_measurement_radiation              X-rays
_cell_measurement_reflns_used            ?
_diffrn_ambient_temperature              ?
_diffrn_measurement_device               'Guinier film'
_diffrn_measurement_device_type          ?
_diffrn_radiation_type                   ?
_diffrn_reflns_number                    ?
_exptl_absorpt_coefficient_mu            ?
_exptl_absorpt_correction_type           ?
_computing_structure_solution            ?
_refine_ls_number_parameters             ?
_refine_ls_number_reflns                 ?
_refine_ls_R_factor_gt                   ?
_refine_ls_wR_factor_gt                  ?

# End of data set 260809

