##############################################################################
#                                                                            #
# Fe-Ge            # FeGe2 rt                                      #  261150 #
#                                                                            #
##############################################################################
#                                                                            #
#                           Pearson's Crystal Data                           #
#      Crystal Structure Database for Inorganic Compounds (on DVD)           #
#                              Release 2022/23                               #
#                  Editors: Pierre Villars and Karin Cenzual                 #
#                                                                            #
#   Copyright (c) ASM International & Material Phases Data System (MPDS),    #
# Switzerland & National Institute for Materials Science (NIMS), Japan, 2022 #
#                   All rights reserved. Version 2022.07                     #
#                                                                            #
#   This copy of Pearson's Crystal Data is licensed to:                      #
#   University of Alberta, Chemistry Department, 1-5 Installations License         #
#                                                                            #
##############################################################################

data_261150
_audit_creation_date                     2023-07-09
_audit_creation_method
;
Pearson's Crystal Data browser
;
#_database_code_PCD                      261150
_database_code_PDF                       04-001-2716

# Entry summary

_chemical_formula_structural             'Fe Ge~2~'
_chemical_formula_sum                    'Fe Ge2'
_chemical_name_mineral                   ?
_chemical_compound_source                ?
_chemical_name_structure_type            CuAl~2~,tI12,140
_chemical_formula_weight                 201.0

# Bibliographic data

_publ_section_title
'Uber A~2~B-Verbindungen vom Al~2~Cu-Typ'                                     
_journal_coden_ASTM                      ZEMTAE
_journal_name_full                       'Z. Metallkd.'
_journal_year                            1943
_journal_volume                          35
_journal_page_first                      218
_journal_page_last                       221
_journal_language                        German
loop_
 _publ_author_name
 _publ_author_address
'Wallbaum H.J.'
;
Gottingen Georg August University
Institut fur Allgemeine Metallkunde
Gottingen
Germany
;

# Standardized crystallographic data

_cell_length_a                           5.899
_cell_length_b                           5.899
_cell_length_c                           4.941
_cell_angle_alpha                        90
_cell_angle_beta                         90
_cell_angle_gamma                        90
_cell_volume                             171.94
_cell_formula_units_Z                    4
_space_group_IT_number                   140
_space_group_name_H-M_alt                'I 4/m c m'
loop_
 _space_group_symop_id
 _space_group_symop_operation_xyz
 1 'x, y, z'
 2 '-x, -y, -z'
 3 '-x, -y, z'
 4 '-x, y, 1/2-z'
 5 '-x, y, 1/2+z'
 6 '-y, -x, 1/2-z'
 7 '-y, -x, 1/2+z'
 8 '-y, x, -z'
 9 '-y, x, z'
 10 'x, -y, 1/2-z'
 11 'x, -y, 1/2+z'
 12 'x, y, -z'
 13 'y, -x, -z'
 14 'y, -x, z'
 15 'y, x, 1/2-z'
 16 'y, x, 1/2+z'
 17 '1/2+x, 1/2+y, 1/2+z'
 18 '1/2-x, 1/2-y, 1/2-z'
 19 '1/2-x, 1/2-y, 1/2+z'
 20 '1/2-x, 1/2+y, 1-z'
 21 '1/2-x, 1/2+y, 1+z'
 22 '1/2-y, 1/2-x, 1-z'
 23 '1/2-y, 1/2-x, 1+z'
 24 '1/2-y, 1/2+x, 1/2-z'
 25 '1/2-y, 1/2+x, 1/2+z'
 26 '1/2+x, 1/2-y, 1-z'
 27 '1/2+x, 1/2-y, 1+z'
 28 '1/2+x, 1/2+y, 1/2-z'
 29 '1/2+y, 1/2-x, 1/2-z'
 30 '1/2+y, 1/2-x, 1/2+z'
 31 '1/2+y, 1/2+x, 1-z'
 32 '1/2+y, 1/2+x, 1+z'
loop_
 _atom_type_symbol
 Ge
 Fe
loop_
 _atom_site_label
 _atom_site_type_symbol
 _atom_site_symmetry_multiplicity
 _atom_site_Wyckoff_symbol
 _atom_site_fract_x
 _atom_site_fract_y
 _atom_site_fract_z
 _atom_site_occupancy
 Ge Ge 8 h 0.158 0.658 0 1
 Fe Fe 4 a 0 0 0.25 1


_exptl_crystal_colour                    ?
_exptl_crystal_density_meas              ?
_exptl_crystal_density_diffrn            7.77
_cell_measurement_temperature            ?
_cell_measurement_radiation              'X-rays, Co Ka'
_cell_measurement_reflns_used            ?
_diffrn_ambient_temperature              ?
_diffrn_measurement_device               'Debye-Scherrer film'
_diffrn_measurement_device_type          ?
_diffrn_radiation_type                   ?
_diffrn_reflns_number                    ?
_exptl_absorpt_coefficient_mu            ?
_exptl_absorpt_correction_type           ?
_computing_structure_solution            ?
_refine_ls_number_parameters             ?
_refine_ls_number_reflns                 ?
_refine_ls_R_factor_gt                   ?
_refine_ls_wR_factor_gt                  ?

# Published diffraction lines

loop_
 _refln_index_h
 _refln_index_k
 _refln_index_l
 _refln_d_spacing
 _refln_intensity_meas
 0 0 2 2.471 3
 2 1 1 2.327 5.3
 1 1 2 2.126 4.7
 2 2 0 2.088 3
 2 0 2 1.896 3.3
 3 1 0 1.863 4.7
 2 1 3 1.398 5
 4 1 1 1.375 3.3
 2 4 0 1.32 3
 4 0 2 1.267 4.7
 0 0 4 1.238 3
 3 3 2 1.214 5
 4 1 3 1.082 3.3
 5 2 1 1.071 4.7
 3 1 4 1.032 4.7

# End of data set 261150

