##############################################################################
#                                                                            #
# Pd-Sn            # PdSn                                          #  261156 #
#                                                                            #
##############################################################################
#                                                                            #
#                           Pearson's Crystal Data                           #
#      Crystal Structure Database for Inorganic Compounds (on DVD)           #
#                              Release 2022/23                               #
#                  Editors: Pierre Villars and Karin Cenzual                 #
#                                                                            #
#   Copyright (c) ASM International & Material Phases Data System (MPDS),    #
# Switzerland & National Institute for Materials Science (NIMS), Japan, 2022 #
#                   All rights reserved. Version 2022.07                     #
#                                                                            #
#   This copy of Pearson's Crystal Data is licensed to:                      #
#   University of Alberta, Chemistry Department, 1-5 Installations License         #
#                                                                            #
##############################################################################

data_261156
_audit_creation_date                     2023-07-09
_audit_creation_method
;
Pearson's Crystal Data browser
;
#_database_code_PCD                      261156
_database_code_PDF                       04-001-2722

# Entry summary

_chemical_formula_structural             'Pd Sn'
_chemical_formula_sum                    'Pd Sn'
_chemical_name_mineral                   ?
_chemical_compound_source                ?
_chemical_name_structure_type            FeAs,oP8,62
_chemical_formula_weight                 225.1

# Bibliographic data

_publ_section_title
;
Zur Kenntnis des Aufbaus und der Kristallchemie einiger Edelmetallsysteme (Palladium-Blei, Palladium-Zinn, Iridium-Zinn, Rhodium-Zinn, Platin-Blei)
;
_journal_coden_ASTM                      MEFGAZ
_journal_name_full                       Metallforschung
_journal_year                            1946
_journal_volume                          1
_journal_page_first                      137
_journal_page_last                       145
_journal_language                        German
loop_
 _publ_author_name
 _publ_author_address
'Nowotny H.'
;
Kaiser Wilhelm Society for the Advancement of Science
Kaiser Wilhelm Institut (KWI) fur Metallforschung
Stuttgart
Germany
;
'Schubert K.'
;
Kaiser Wilhelm Society for the Advancement of Science
Kaiser Wilhelm Institut (KWI) fur Metallforschung
Stuttgart
Germany
;
'Dettinger U.'
;
Kaiser Wilhelm Society for the Advancement of Science
Kaiser Wilhelm Institut (KWI) fur Metallforschung
Stuttgart
Germany
;

# Standardized crystallographic data

_cell_length_a                           6.12
_cell_length_b                           3.86
_cell_length_c                           6.31
_cell_angle_alpha                        90
_cell_angle_beta                         90
_cell_angle_gamma                        90
_cell_volume                             149.06
_cell_formula_units_Z                    4
_space_group_IT_number                   62
_space_group_name_H-M_alt                'P n m a'
loop_
 _space_group_symop_id
 _space_group_symop_operation_xyz
 1 'x, y, z'
 2 '1/2-x, -y, 1/2+z'
 3 '1/2-x, 1/2+y, 1/2+z'
 4 '-x, -y, -z'
 5 '-x, 1/2+y, -z'
 6 '1/2+x, 1/2-y, 1/2-z'
 7 '1/2+x, y, 1/2-z'
 8 'x, 1/2-y, z'
loop_
 _atom_type_symbol
 Pd
 Sn
loop_
 _atom_site_label
 _atom_site_type_symbol
 _atom_site_symmetry_multiplicity
 _atom_site_Wyckoff_symbol
 _atom_site_fract_x
 _atom_site_fract_y
 _atom_site_fract_z
 _atom_site_occupancy
 Pd Pd 4 c 0.007 0.25 0.182 1
 Sn Sn 4 c 0.182 0.25 0.59 1


_exptl_crystal_colour                    ?
_exptl_crystal_density_meas              9.4
_exptl_crystal_density_diffrn            10.03
_cell_measurement_temperature            ?
_cell_measurement_radiation              'X-rays, Cu Ka'
_cell_measurement_reflns_used            ?
_diffrn_ambient_temperature              ?
_diffrn_measurement_device               'rotation photographs'
_diffrn_measurement_device_type          ?
_diffrn_radiation_type                   'X-rays, Cu Ka'
_diffrn_reflns_number                    ?
_exptl_absorpt_coefficient_mu            ?
_exptl_absorpt_correction_type           ?
_computing_structure_solution            ?
_refine_ls_number_parameters             ?
_refine_ls_number_reflns                 ?
_refine_ls_R_factor_gt                   ?
_refine_ls_wR_factor_gt                  ?

# Published diffraction lines

loop_
 _refln_index_h
 _refln_index_k
 _refln_index_l
 _refln_d_spacing
 _refln_intensity_meas
 1 1 1 2.887 5
 0 1 2 2.784 4
 1 2 0 2.381 3
 1 1 2 2.275 6
 1 2 1 2.233 7
 0 2 2 2.191 3
 0 1 3 1.985 2
 0 3 1 1.932 7
 1 0 3 1.843 4
 1 3 1 1.732 3
 2 1 2 1.596 5
 0 4 0 1.53 3
 0 4 1 1.486 3
 0 3 3 1.465 3
 2 2 2 1.452 3
 1 4 0 1.41 3
 1 4 1 1.39 4
 2 3 1 1.371 4
 1 2 4 1.319 2
 1 4 2 1.297 3
 0 4 3 1.239 3.3

# End of data set 261156

