##############################################################################
#                                                                            #
# Ge-Pd            # PdGe                                          #  261218 #
#                                                                            #
##############################################################################
#                                                                            #
#                           Pearson's Crystal Data                           #
#      Crystal Structure Database for Inorganic Compounds (on DVD)           #
#                              Release 2022/23                               #
#                  Editors: Pierre Villars and Karin Cenzual                 #
#                                                                            #
#   Copyright (c) ASM International & Material Phases Data System (MPDS),    #
# Switzerland & National Institute for Materials Science (NIMS), Japan, 2022 #
#                   All rights reserved. Version 2022.07                     #
#                                                                            #
#   This copy of Pearson's Crystal Data is licensed to:                      #
#   University of Alberta, Chemistry Department, 1-5 Installations License         #
#                                                                            #
##############################################################################

data_261218
_audit_creation_date                     2023-07-09
_audit_creation_method
;
Pearson's Crystal Data browser
;
#_database_code_PCD                      261218
_database_code_PDF                       04-001-2783

# Entry summary

_chemical_formula_structural             'Pd Ge'
_chemical_formula_sum                    'Ge Pd'
_chemical_name_mineral                   ?
_chemical_compound_source                ?
_chemical_name_structure_type            FeAs,oP8,62
_chemical_formula_weight                 179.0

# Bibliographic data

_publ_section_title                      'Neue Phasen vom MnP (B31)-Typ'
_journal_coden_ASTM                      ZEMTAE
_journal_name_full                       'Z. Metallkd.'
_journal_year                            1950
_journal_volume                          41
_journal_page_first                      358
_journal_page_last                       367
_journal_language                        German
loop_
 _publ_author_name
 _publ_author_address
'Pfisterer H.'
;
Max Planck Society (MPG)
Max Planck Institut (MPI) fur Metallforschung
Stuttgart
Germany
;
'Schubert K.'
;
Max Planck Society (MPG)
Max Planck Institut (MPI) fur Metallforschung
Stuttgart
Germany
;

# Standardized crystallographic data

_cell_length_a                           5.782
_cell_length_b                           3.481
_cell_length_c                           6.259
_cell_angle_alpha                        90
_cell_angle_beta                         90
_cell_angle_gamma                        90
_cell_volume                             125.98
_cell_formula_units_Z                    4
_space_group_IT_number                   62
_space_group_name_H-M_alt                'P n m a'
loop_
 _space_group_symop_id
 _space_group_symop_operation_xyz
 1 'x, y, z'
 2 '1/2-x, -y, 1/2+z'
 3 '1/2-x, 1/2+y, 1/2+z'
 4 '-x, -y, -z'
 5 '-x, 1/2+y, -z'
 6 '1/2+x, 1/2-y, 1/2-z'
 7 '1/2+x, y, 1/2-z'
 8 'x, 1/2-y, z'
loop_
 _atom_type_symbol
 Pd
 Ge
loop_
 _atom_site_label
 _atom_site_type_symbol
 _atom_site_symmetry_multiplicity
 _atom_site_Wyckoff_symbol
 _atom_site_fract_x
 _atom_site_fract_y
 _atom_site_fract_z
 _atom_site_occupancy
 Pd Pd 4 c 0.005 0.25 0.188 1
 Ge Ge 4 c 0.19 0.25 0.575 1


_exptl_crystal_colour                    ?
_exptl_crystal_density_meas              ?
_exptl_crystal_density_diffrn            9.44
_cell_measurement_temperature            ?
_cell_measurement_radiation              'X-rays, Cu Ka'
_cell_measurement_reflns_used            ?
_diffrn_ambient_temperature              ?
_diffrn_measurement_device               'Debye-Scherrer film'
_diffrn_measurement_device_type          ?
_diffrn_radiation_type                   ?
_diffrn_reflns_number                    ?
_exptl_absorpt_coefficient_mu            ?
_exptl_absorpt_correction_type           ?
_computing_structure_solution            ?
_refine_ls_number_parameters             ?
_refine_ls_number_reflns                 ?
_refine_ls_R_factor_gt                   ?
_refine_ls_wR_factor_gt                  ?

# Published diffraction lines

loop_
 _refln_index_h
 _refln_index_k
 _refln_index_l
 _refln_d_spacing
 _refln_intensity_meas
 1 1 0 4.31 2
 2 0 0 3.121 2
 1 0 1 3.047 6
 0 2 0 2.891 3
 2 1 0 2.748 3.3
 1 1 1 2.692 6
 1 2 0 2.629 1
 0 2 1 2.222 3
 2 1 1 2.162 7
 2 2 0 2.123 5
 1 2 1 2.098 8
 3 1 0 1.963 5
 1 3 0 1.843 5
 2 2 1 1.812 1
 3 0 1 1.792 5
 0 0 2 1.741 4.7
 3 1 1 1.707 1
 3 2 0 1.691 2
 1 3 1 1.623 2
 4 1 0 1.513 2
 0 2 2 1.491 2
 2 1 2 1.471 2.3
 1 2 2 1.449 3
 3 3 0 1.417 4
 4 1 1 1.387 4
 2 2 2 1.35 4.7
 0 4 1 1.334 1
 2 4 0 1.313 2
 1 4 1 1.306 6
 1 3 2 1.266 4
 2 4 1 1.228 4
 4 3 0 1.219 2
 3 4 0 1.191 1
 5 0 1 1.18 1.7
 5 2 0 1.15 6
 1 0 3 1.143 2
 3 4 1 1.126 2
 0 4 2 1.114 2.3
 3 3 2 1.1 2.7
 1 5 1 1.081 1
 2 1 3 1.072 2.7
 1 2 3 1.063 4
 5 3 0 1.051 3
 2 5 1 1.037 4

# End of data set 261218

