##############################################################################
#                                                                            #
# Ga-Pd            # Pd2Ga                                         #  261302 #
#                                                                            #
##############################################################################
#                                                                            #
#                           Pearson's Crystal Data                           #
#      Crystal Structure Database for Inorganic Compounds (on DVD)           #
#                              Release 2022/23                               #
#                  Editors: Pierre Villars and Karin Cenzual                 #
#                                                                            #
#   Copyright (c) ASM International & Material Phases Data System (MPDS),    #
# Switzerland & National Institute for Materials Science (NIMS), Japan, 2022 #
#                   All rights reserved. Version 2022.07                     #
#                                                                            #
#   This copy of Pearson's Crystal Data is licensed to:                      #
#   University of Alberta, Chemistry Department, 1-5 Installations License         #
#                                                                            #
##############################################################################

data_261302
_audit_creation_date                     2023-07-09
_audit_creation_method
;
Pearson's Crystal Data browser
;
#_database_code_PCD                      261302
_database_code_PDF                       04-001-2865

# Entry summary

_chemical_formula_structural             'Pd~2~ Ga'
_chemical_formula_sum                    'Ga Pd2'
_chemical_name_mineral                   ?
_chemical_compound_source                ?
_chemical_name_structure_type            Co~2~Si-b,oP12,62
_chemical_formula_weight                 282.5

# Bibliographic data

_publ_section_title
;
Zum Aufbau der Systeme Kobalt-Gallium, Palladium-Gallium, Palladium-Zinn und verwandter Legierungen
;
_journal_coden_ASTM                      ZEMTAE
_journal_name_full                       'Z. Metallkd.'
_journal_year                            1959
_journal_volume                          50
_journal_page_first                      534
_journal_page_last                       540
_journal_language                        German
loop_
 _publ_author_name
 _publ_author_address
'Schubert K.'
;
Max Planck Society (MPG)
Max Planck Institut (MPI) fur Metallforschung
Stuttgart
Germany
;
'Lukas H.L.'
;
Max Planck Society (MPG)
Max Planck Institut (MPI) fur Metallforschung
Stuttgart
Germany
;
'Meissner H.G.'
;
Max Planck Society (MPG)
Max Planck Institut (MPI) fur Metallforschung
Stuttgart
Germany
;
'Bhan S.'
;
Max Planck Society (MPG)
Max Planck Institut (MPI) fur Metallforschung
Stuttgart
Germany
;

# Standardized crystallographic data

_cell_length_a                           5.493
_cell_length_b                           4.064
_cell_length_c                           7.814
_cell_angle_alpha                        90
_cell_angle_beta                         90
_cell_angle_gamma                        90
_cell_volume                             174.44
_cell_formula_units_Z                    4
_space_group_IT_number                   62
_space_group_name_H-M_alt                'P n m a'
loop_
 _space_group_symop_id
 _space_group_symop_operation_xyz
 1 'x, y, z'
 2 '1/2-x, -y, 1/2+z'
 3 '1/2-x, 1/2+y, 1/2+z'
 4 '-x, -y, -z'
 5 '-x, 1/2+y, -z'
 6 '1/2+x, 1/2-y, 1/2-z'
 7 '1/2+x, y, 1/2-z'
 8 'x, 1/2-y, z'
loop_
 _atom_type_symbol
 Pd
 Ga
loop_
 _atom_site_label
 _atom_site_type_symbol
 _atom_site_symmetry_multiplicity
 _atom_site_Wyckoff_symbol
 _atom_site_fract_x
 _atom_site_fract_y
 _atom_site_fract_z
 _atom_site_occupancy
 Pd1 Pd 4 c 0.04 0.25 0.71 1
 Pd2 Pd 4 c 0.17 0.25 0.07 1
 Ga Ga 4 c 0.21 0.25 0.39 1


_exptl_crystal_colour                    ?
_exptl_crystal_density_meas              ?
_exptl_crystal_density_diffrn            10.76
_cell_measurement_temperature            ?
_cell_measurement_radiation              X-rays
_cell_measurement_reflns_used            ?
_diffrn_ambient_temperature              ?
_diffrn_measurement_device               ?
_diffrn_measurement_device_type          ?
_diffrn_radiation_type                   ?
_diffrn_reflns_number                    ?
_exptl_absorpt_coefficient_mu            ?
_exptl_absorpt_correction_type           ?
_computing_structure_solution            ?
_refine_ls_number_parameters             ?
_refine_ls_number_reflns                 ?
_refine_ls_R_factor_gt                   ?
_refine_ls_wR_factor_gt                  ?

# End of data set 261302

