##############################################################################
#                                                                            #
# Fe-Ga            # FeGa                                          #  261493 #
#                                                                            #
##############################################################################
#                                                                            #
#                           Pearson's Crystal Data                           #
#      Crystal Structure Database for Inorganic Compounds (on DVD)           #
#                              Release 2022/23                               #
#                  Editors: Pierre Villars and Karin Cenzual                 #
#                                                                            #
#   Copyright (c) ASM International & Material Phases Data System (MPDS),    #
# Switzerland & National Institute for Materials Science (NIMS), Japan, 2022 #
#                   All rights reserved. Version 2022.07                     #
#                                                                            #
#   This copy of Pearson's Crystal Data is licensed to:                      #
#   University of Alberta, Chemistry Department, 1-5 Installations License         #
#                                                                            #
##############################################################################

data_261493
_audit_creation_date                     2023-07-09
_audit_creation_method
;
Pearson's Crystal Data browser
;
#_database_code_PCD                      261493
_database_code_PDF                       04-001-3045

# Entry summary

_chemical_formula_structural             'Fe~14.5~ Ga~12~'
_chemical_formula_sum                    'Fe14.5 Ga12'
_chemical_name_mineral                   ?
_chemical_compound_source                ?
_chemical_name_structure_type
Cr~4.5~(Cr~0.56~Al~0.44~)~9~Al~12~,hR78,160                                   
_chemical_formula_weight                 1646.4

# Bibliographic data

_publ_section_title
;
Zum Aufbau einiger zu T^5^-Ga homologer und quasihomologer Systeme. II. Die Systeme Chrom-Gallium, Mangan-Gallium und Eisen-Gallium sowie einige Bemerkungen zum Aufbau der Systeme Vanadium-Antimon und Vanadium-Arsen
;
_journal_coden_ASTM                      ZEMTAE
_journal_name_full                       'Z. Metallkd.'
_journal_year                            1965
_journal_volume                          56
_journal_page_first                      523
_journal_page_last                       530
_journal_language                        German
loop_
 _publ_author_name
 _publ_author_address
'Meissner H.G.'
;
Max Planck Society (MPG)
Max Planck Institut (MPI) fur Metallforschung
Stuttgart
Germany
;
'Schubert K.'
;
Max Planck Society (MPG)
Max Planck Institut (MPI) fur Metallforschung
Stuttgart
Germany
;

# Standardized crystallographic data

_cell_length_a                           12.4141
_cell_length_b                           12.4141
_cell_length_c                           7.7618
_cell_angle_alpha                        90
_cell_angle_beta                         90
_cell_angle_gamma                        120
_cell_volume                             1035.9
_cell_formula_units_Z                    3
_space_group_IT_number                   160
_space_group_name_H-M_alt                'R 3 m h'
loop_
 _space_group_symop_id
 _space_group_symop_operation_xyz
 1 'x, y, z'
 2 '-x+y, -x, z'
 3 '-x+y, y, z'
 4 '-y, -x, z'
 5 '-y, x-y, z'
 6 'x, x-y, z'
 7 '2/3+x, 1/3+y, 1/3+z'
 8 '2/3-x+y, 1/3-x, 1/3+z'
 9 '2/3-x+y, 1/3+y, 1/3+z'
 10 '2/3-y, 1/3-x, 1/3+z'
 11 '2/3-y, 1/3+x-y, 1/3+z'
 12 '2/3+x, 1/3+x-y, 1/3+z'
 13 '1/3+x, 2/3+y, 2/3+z'
 14 '1/3-x+y, 2/3-x, 2/3+z'
 15 '1/3-x+y, 2/3+y, 2/3+z'
 16 '1/3-y, 2/3-x, 2/3+z'
 17 '1/3-y, 2/3+x-y, 2/3+z'
 18 '1/3+x, 2/3+x-y, 2/3+z'

# Atomic positions taken from type-defining entry

loop_
 _atom_type_symbol
 Ga
 Fe
loop_
 _atom_site_label
 _atom_site_type_symbol
 _atom_site_symmetry_multiplicity
 _atom_site_Wyckoff_symbol
 _atom_site_fract_x
 _atom_site_fract_y
 _atom_site_fract_z
 _atom_site_occupancy
 Ga1 Ga 18 c 0.3291 0.0421 0.1683 1
 Fe1 Fe 9 b 0.1150 0.8850 0.0645 1
 Ga2 Ga 9 b 0.2146 0.7854 0.2358 1
 Ga3 Ga 9 b 0.4504 0.5496 0.0899 1
 Fe2 Fe 9 b 0.5536 0.4464 0.2560 1
 Fe3 Fe 9 b 0.5950 0.4050 0.5790 1
 Fe4 Fe 9 b 0.7371 0.2629 0.0816 1
 Fe5 Fe 3 a 0 0 0.0000 0.500
 Fe6 Fe 3 a 0 0 0.4866 1


_exptl_crystal_colour                    ?
_exptl_crystal_density_meas              ?
_exptl_crystal_density_diffrn            7.92
_cell_measurement_temperature            ?
_cell_measurement_radiation              'X-rays, Cu Ka'
_cell_measurement_reflns_used            ?
_diffrn_ambient_temperature              ?
_diffrn_measurement_device               ?
_diffrn_measurement_device_type          ?
_diffrn_radiation_type                   ?
_diffrn_reflns_number                    ?
_exptl_absorpt_coefficient_mu            ?
_exptl_absorpt_correction_type           ?
_computing_structure_solution            ?
_refine_ls_number_parameters             ?
_refine_ls_number_reflns                 ?
_refine_ls_R_factor_gt                   ?
_refine_ls_wR_factor_gt                  ?

# End of data set 261493

