##############################################################################
#                                                                            #
# Ge-Pt            # Pt3Ge rt                                      #  261959 #
#                                                                            #
##############################################################################
#                                                                            #
#                           Pearson's Crystal Data                           #
#      Crystal Structure Database for Inorganic Compounds (on DVD)           #
#                              Release 2022/23                               #
#                  Editors: Pierre Villars and Karin Cenzual                 #
#                                                                            #
#   Copyright (c) ASM International & Material Phases Data System (MPDS),    #
# Switzerland & National Institute for Materials Science (NIMS), Japan, 2022 #
#                   All rights reserved. Version 2022.07                     #
#                                                                            #
#   This copy of Pearson's Crystal Data is licensed to:                      #
#   University of Alberta, Chemistry Department, 1-5 Installations License         #
#                                                                            #
##############################################################################

data_261959
_audit_creation_date                     2023-07-09
_audit_creation_method
;
Pearson's Crystal Data browser
;
#_database_code_PCD                      261959
_database_code_PDF                       04-001-3476

# Entry summary

_chemical_formula_structural             'Pt~3~ Ge'
_chemical_formula_sum                    'Ge Pt3'
_chemical_name_mineral                   ?
_chemical_compound_source                ?
_chemical_name_structure_type            Pt~3~Ge,mS16,12
_chemical_formula_weight                 657.9
_chemical_melting_point                  1224

# Bibliographic data

_publ_section_title
'The Platinum-Germanium Phase Diagram'                                        
_journal_coden_ASTM                      ZEMTAE
_journal_name_full                       'Z. Metallkd.'
_journal_year                            1987
_journal_volume                          78
_journal_page_first                      295
_journal_page_last                       300
_journal_language                        English
loop_
 _publ_author_name
 _publ_author_address
'Oya Y.'
;
Tokyo Institute of Technology
Research Laboratory of Precision Machinery and Electronics
Yokohama / Kanagawa
Japan
;
'Suzuki T.'
;
Tokyo Institute of Technology
Research Laboratory of Precision Machinery and Electronics
Yokohama / Kanagawa
Japan
;

# Standardized crystallographic data

_cell_length_a                           7.7687
_cell_length_b                           7.767
_cell_length_c                           5.52
_cell_angle_alpha                        90
_cell_angle_beta                         134.09
_cell_angle_gamma                        90
_cell_volume                             239.23
_cell_formula_units_Z                    4
_space_group_IT_number                   12
_space_group_name_H-M_alt                'C 1 2/m 1'
loop_
 _space_group_symop_id
 _space_group_symop_operation_xyz
 1 'x, y, z'
 2 '-x, -y, -z'
 3 '-x, y, -z'
 4 'x, -y, z'
 5 '1/2+x, 1/2+y, z'
 6 '1/2-x, 1/2-y, -z'
 7 '1/2-x, 1/2+y, -z'
 8 '1/2+x, 1/2-y, z'

# Atomic positions taken from type-defining entry

loop_
 _atom_type_symbol
 Pt
 Ge
loop_
 _atom_site_label
 _atom_site_type_symbol
 _atom_site_symmetry_multiplicity
 _atom_site_Wyckoff_symbol
 _atom_site_fract_x
 _atom_site_fract_y
 _atom_site_fract_z
 _atom_site_occupancy
 Pt1 Pt 4 i 0.2 0 0.0 1
 Ge1 Ge 4 i 0.25 0 0.5 1
 Pt2 Pt 4 h 0 0.25 0.5 1
 Pt3 Pt 4 g 0 0.3 0 1


_exptl_crystal_colour                    ?
_exptl_crystal_density_meas              ?
_exptl_crystal_density_diffrn            18.27
_cell_measurement_temperature            ?
_cell_measurement_radiation              'X-rays, Cu Ka'
_cell_measurement_reflns_used            ?
_diffrn_ambient_temperature              ?
_diffrn_measurement_device               diffractometer
_diffrn_measurement_device_type          ?
_diffrn_radiation_type                   ?
_diffrn_reflns_number                    ?
_exptl_absorpt_coefficient_mu            ?
_exptl_absorpt_correction_type           ?
_computing_structure_solution            ?
_refine_ls_number_parameters             ?
_refine_ls_number_reflns                 ?
_refine_ls_R_factor_gt                   ?
_refine_ls_wR_factor_gt                  ?

# End of data set 261959

