##############################################################################
#                                                                            #
# Ga-Ni            # Ni2Ga3                                        #  262165 #
#                                                                            #
##############################################################################
#                                                                            #
#                           Pearson's Crystal Data                           #
#      Crystal Structure Database for Inorganic Compounds (on DVD)           #
#                              Release 2022/23                               #
#                  Editors: Pierre Villars and Karin Cenzual                 #
#                                                                            #
#   Copyright (c) ASM International & Material Phases Data System (MPDS),    #
# Switzerland & National Institute for Materials Science (NIMS), Japan, 2022 #
#                   All rights reserved. Version 2022.07                     #
#                                                                            #
#   This copy of Pearson's Crystal Data is licensed to:                      #
#   University of Alberta, Chemistry Department, 1-5 Installations License         #
#                                                                            #
##############################################################################

data_262165
_audit_creation_date                     2023-07-09
_audit_creation_method
;
Pearson's Crystal Data browser
;
#_database_code_PCD                      262165
_database_code_PDF                       04-001-3663

# Entry summary

_chemical_formula_structural             'Ni~2~ Ga~3~'
_chemical_formula_sum                    'Ga3 Ni2'
_chemical_name_mineral                   ?
_chemical_compound_source                ?
_chemical_name_structure_type            Ni~2~Al~3~,hP5,164
_chemical_formula_weight                 326.6
_chemical_melting_point                  1168

# Bibliographic data

_publ_section_title                      'Das System Nickel-Gallium'
_journal_coden_ASTM                      ZEMTAE
_journal_name_full                       'Z. Metallkd.'
_journal_year                            1950
_journal_volume                          41
_journal_page_first                      480
_journal_page_last                       484
_journal_language                        German
loop_
 _publ_author_name
 _publ_author_address
'Hellner E.'
;
Marburg Philipps University
Institut fur Mineralogie, Petrologie und Kristallographie
Marburg
Germany
;

# Standardized crystallographic data

_cell_length_a                           4.052
_cell_length_b                           4.052
_cell_length_c                           4.887
_cell_angle_alpha                        90
_cell_angle_beta                         90
_cell_angle_gamma                        120
_cell_volume                             69.49
_cell_formula_units_Z                    1
_space_group_IT_number                   164
_space_group_name_H-M_alt                'P -3 m 1'
loop_
 _space_group_symop_id
 _space_group_symop_operation_xyz
 1 'x, y, z'
 2 '-x+y, -x, z'
 3 '-x+y, y, z'
 4 '-x, -x+y, -z'
 5 '-x, -y, -z'
 6 '-y, -x, z'
 7 '-y, x-y, z'
 8 'x, x-y, z'
 9 'x-y, -y, -z'
 10 'x-y, x, -z'
 11 'y, -x+y, -z'
 12 'y, x, -z'
loop_
 _atom_type_symbol
 Ni
 Ga
loop_
 _atom_site_label
 _atom_site_type_symbol
 _atom_site_symmetry_multiplicity
 _atom_site_Wyckoff_symbol
 _atom_site_fract_x
 _atom_site_fract_y
 _atom_site_fract_z
 _atom_site_occupancy
 Ni Ni 2 d 0.333333 0.666667 0.138 1
 Ga2 Ga 2 d 0.333333 0.666667 0.625 1
 Ga1 Ga 1 a 0 0 0 1


_exptl_crystal_colour                    ?
_exptl_crystal_density_meas              7.94
_exptl_crystal_density_diffrn            7.80
_cell_measurement_temperature            ?
_cell_measurement_radiation              'X-rays, Cu Ka'
_cell_measurement_reflns_used            ?
_diffrn_ambient_temperature              ?
_diffrn_measurement_device               'Bohlin-Seemann film'
_diffrn_measurement_device_type          ?
_diffrn_radiation_type                   ?
_diffrn_reflns_number                    ?
_exptl_absorpt_coefficient_mu            ?
_exptl_absorpt_correction_type           ?
_computing_structure_solution            ?
_refine_ls_number_parameters             ?
_refine_ls_number_reflns                 ?
_refine_ls_R_factor_gt                   ?
_refine_ls_wR_factor_gt                  ?

# Published diffraction lines

loop_
 _refln_index_h
 _refln_index_k
 _refln_index_l
 _refln_d_spacing
 _refln_intensity_meas
 1 0 0 3.519 2.5
 1 0 1 2.863 3.75
 1 0 2 2.009 7.5
 1 1 1 1.871 1.5
 2 0 0 1.753 0.5
 2 0 1 1.656 2.5
 1 0 3 1.48 1.5
 2 0 2 1.426 4.5
 2 1 0 1.328 0.5
 1 1 3 1.274 3
 0 0 4 1.224 0.5
 2 0 3 1.18 0.5
 2 1 2 1.168 5.5
 1 0 4 1.156 3.5
 1 1 4 1.049 2.5
 2 1 3 1.033 1
 2 2 0 1.015 3.5
 0 2 4 1.005 3
 3 1 1 0.956 1.5
 3 1 2 0.907 4.5
 2 1 4 0.9 3.5
 3 0 4 0.847 2.5
 4 0 2 0.827 3.5

# End of data set 262165

