##############################################################################
#                                                                            #
# Ga-Ni            # Ni0.97Ga3.62                                  #  262166 #
#                                                                            #
##############################################################################
#                                                                            #
#                           Pearson's Crystal Data                           #
#      Crystal Structure Database for Inorganic Compounds (on DVD)           #
#                              Release 2022/23                               #
#                  Editors: Pierre Villars and Karin Cenzual                 #
#                                                                            #
#   Copyright (c) ASM International & Material Phases Data System (MPDS),    #
# Switzerland & National Institute for Materials Science (NIMS), Japan, 2022 #
#                   All rights reserved. Version 2022.07                     #
#                                                                            #
#   This copy of Pearson's Crystal Data is licensed to:                      #
#   University of Alberta, Chemistry Department, 1-5 Installations License         #
#                                                                            #
##############################################################################

data_262166
_audit_creation_date                     2023-07-09
_audit_creation_method
;
Pearson's Crystal Data browser
;
#_database_code_PCD                      262166
_database_code_PDF                       ?

# Entry summary

_chemical_formula_structural             'Ni Ga~4~'
_chemical_formula_sum                    'Ga4 Ni'
_chemical_name_mineral                   ?
_chemical_compound_source                ?
_chemical_name_structure_type            Ni~0.97~Ga~3.62~,cI40,197
_chemical_formula_weight                 337.6
_chemical_melting_point                  525

# Bibliographic data

_publ_section_title                      'Das System Nickel-Gallium'
_journal_coden_ASTM                      ZEMTAE
_journal_name_full                       'Z. Metallkd.'
_journal_year                            1950
_journal_volume                          41
_journal_page_first                      480
_journal_page_last                       484
_journal_language                        German
loop_
 _publ_author_name
 _publ_author_address
'Hellner E.'
;
Marburg Philipps University
Institut fur Mineralogie, Petrologie und Kristallographie
Marburg
Germany
;

# Standardized crystallographic data

_cell_length_a                           8.41
_cell_length_b                           8.41
_cell_length_c                           8.41
_cell_angle_alpha                        90
_cell_angle_beta                         90
_cell_angle_gamma                        90
_cell_volume                             594.82
_cell_formula_units_Z                    8
_space_group_IT_number                   197
_space_group_name_H-M_alt                'I 2 3'
loop_
 _space_group_symop_id
 _space_group_symop_operation_xyz
 1 'x, y, z'
 2 '-x, -y, z'
 3 '-x, y, -z'
 4 '-y, -z, x'
 5 '-y, z, -x'
 6 '-z, -x, y'
 7 '-z, x, -y'
 8 'x, -y, -z'
 9 'y, -z, -x'
 10 'y, z, x'
 11 'z, -x, -y'
 12 'z, x, y'
 13 '1/2+x, 1/2+y, 1/2+z'
 14 '1/2-x, 1/2-y, 1/2+z'
 15 '1/2-x, 1/2+y, 1/2-z'
 16 '1/2-y, 1/2-z, 1/2+x'
 17 '1/2-y, 1/2+z, 1/2-x'
 18 '1/2-z, 1/2-x, 1/2+y'
 19 '1/2-z, 1/2+x, 1/2-y'
 20 '1/2+x, 1/2-y, 1/2-z'
 21 '1/2+y, 1/2-z, 1/2-x'
 22 '1/2+y, 1/2+z, 1/2+x'
 23 '1/2+z, 1/2-x, 1/2-y'
 24 '1/2+z, 1/2+x, 1/2+y'

# Atomic positions taken from type-defining entry

loop_
 _atom_type_symbol
 Ga
 Ni
loop_
 _atom_site_label
 _atom_site_type_symbol
 _atom_site_symmetry_multiplicity
 _atom_site_Wyckoff_symbol
 _atom_site_fract_x
 _atom_site_fract_y
 _atom_site_fract_z
 _atom_site_occupancy
 Ga1 Ga 12 e 0.2482 0.5 0 0.905
 Ga2 Ga 12 d 0.3524 0 0 0.905
 Ni1 Ni 8 c 0.1655 0.1655 0.1655 0.973
 Ga3 Ga 8 c 0.3332 0.3332 0.3332 0.905


_exptl_crystal_colour                    ?
_exptl_crystal_density_meas              6.92
_exptl_crystal_density_diffrn            7.54
_cell_measurement_temperature            ?
_cell_measurement_radiation              'X-rays, Cu Ka'
_cell_measurement_reflns_used            ?
_diffrn_ambient_temperature              ?
_diffrn_measurement_device               'Bohlin-Seemann film'
_diffrn_measurement_device_type          ?
_diffrn_radiation_type                   ?
_diffrn_reflns_number                    ?
_exptl_absorpt_coefficient_mu            ?
_exptl_absorpt_correction_type           ?
_computing_structure_solution            ?
_refine_ls_number_parameters             ?
_refine_ls_number_reflns                 ?
_refine_ls_R_factor_gt                   ?
_refine_ls_wR_factor_gt                  ?

# End of data set 262166

