##############################################################################
#                                                                            #
# Fe-Si            # FeSi2                                         #  377716 #
#                                                                            #
##############################################################################
#                                                                            #
#                           Pearson's Crystal Data                           #
#      Crystal Structure Database for Inorganic Compounds (on DVD)           #
#                              Release 2022/23                               #
#                  Editors: Pierre Villars and Karin Cenzual                 #
#                                                                            #
#   Copyright (c) ASM International & Material Phases Data System (MPDS),    #
# Switzerland & National Institute for Materials Science (NIMS), Japan, 2022 #
#                   All rights reserved. Version 2022.07                     #
#                                                                            #
#   This copy of Pearson's Crystal Data is licensed to:                      #
#   University of Alberta, Chemistry Department, 1-5 Installations License         #
#                                                                            #
##############################################################################

data_377716
_audit_creation_date                     2023-07-09
_audit_creation_method
;
Pearson's Crystal Data browser
;
#_database_code_PCD                      377716
_database_code_PDF                       04-002-5014

# Entry summary

_chemical_formula_structural             'Fe Si~2~'
_chemical_formula_sum                    'Fe Si2'
_chemical_name_mineral                   luobusaite
_chemical_compound_source                ?
_chemical_name_structure_type            FeSi~2~,oS48,64
_chemical_formula_weight                 112.0

# Bibliographic data

_publ_section_title
'Determination de la structure de FeSi~2~\b'                                  
_journal_coden_ASTM                      CHDCAQ
_journal_name_full                       'C. R. Seances Acad. Sci., Ser. C'
_journal_year                            1969
_journal_volume                          269
_journal_page_first                      907
_journal_page_last                       909
_journal_language                        French
loop_
 _publ_author_name
 _publ_author_address
'Wandji R.'
;
National Center for Scientific Research (CNRS)
Laboratoire de Metallurgie et Chimie du Solide
Nancy
France
;
'Dusausoy Y.'
;
Laboratoire de Mineralogie-Cristallographie
Vandoeuvre-les-Nancy
France
;
'Protas J.'
;
Laboratoire de Mineralogie-Cristallographie
Vandoeuvre-les-Nancy
France
;
'Roques B.'
;
Nancy I Henri Poincare University
Laboratoire de Metallurgie et Chimie du Solide
Nancy
France
;

# Standardized crystallographic data

_cell_length_a                           9.863
_cell_length_b                           7.791
_cell_length_c                           7.833
_cell_angle_alpha                        90
_cell_angle_beta                         90
_cell_angle_gamma                        90
_cell_volume                             601.9
_cell_formula_units_Z                    16
_space_group_IT_number                   64
_space_group_name_H-M_alt                'C m c e'
loop_
 _space_group_symop_id
 _space_group_symop_operation_xyz
 1 'x, y, z'
 2 '-x, 1/2-y, 1/2+z'
 3 '-x, -y, -z'
 4 '-x, 1/2+y, 1/2-z'
 5 '-x, y, z'
 6 'x, 1/2-y, 1/2+z'
 7 'x, -y, -z'
 8 'x, 1/2+y, 1/2-z'
 9 '1/2+x, 1/2+y, z'
 10 '1/2-x, 1-y, 1/2+z'
 11 '1/2-x, 1/2-y, -z'
 12 '1/2-x, 1+y, 1/2-z'
 13 '1/2-x, 1/2+y, z'
 14 '1/2+x, 1-y, 1/2+z'
 15 '1/2+x, 1/2-y, -z'
 16 '1/2+x, 1+y, 1/2-z'
loop_
 _atom_type_symbol
 Si
 Fe
loop_
 _atom_site_label
 _atom_site_type_symbol
 _atom_site_symmetry_multiplicity
 _atom_site_Wyckoff_symbol
 _atom_site_fract_x
 _atom_site_fract_y
 _atom_site_fract_z
 _atom_site_occupancy
 Si2 Si 16 g 0.1273 0.0446 0.2744 1
 Si1 Si 16 g 0.129 0.2766 0.0516 1
 Fe2 Fe 8 f 0 0.3086 0.315 1
 Fe1 Fe 8 d 0.2143 0 0 1


_exptl_crystal_colour                    ?
_exptl_crystal_density_meas              4.93
_exptl_crystal_density_diffrn            4.94
_cell_measurement_temperature            ?
_cell_measurement_radiation              'X-rays, Mo Ka'
_cell_measurement_reflns_used            ?
_diffrn_ambient_temperature              ?
_diffrn_measurement_device               'Weissenberg photographs'
_diffrn_measurement_device_type          ?
_diffrn_radiation_type                   'X-rays, Mo Ka'
_diffrn_reflns_number                    ?
_exptl_absorpt_coefficient_mu            ?
_exptl_absorpt_correction_type           ?
_computing_structure_solution            'Patterson and Fourier synthesis'
_refine_ls_number_parameters             ?
_refine_ls_number_reflns                 ?
_refine_ls_R_factor_gt                   0.109
_refine_ls_wR_factor_gt                  ?

# End of data set 377716

