##############################################################################
#                                                                            #
# Ge-Pt            # Pt3Ge ht                                      #  450108 #
#                                                                            #
##############################################################################
#                                                                            #
#                           Pearson's Crystal Data                           #
#      Crystal Structure Database for Inorganic Compounds (on DVD)           #
#                              Release 2022/23                               #
#                  Editors: Pierre Villars and Karin Cenzual                 #
#                                                                            #
#   Copyright (c) ASM International & Material Phases Data System (MPDS),    #
# Switzerland & National Institute for Materials Science (NIMS), Japan, 2022 #
#                   All rights reserved. Version 2022.07                     #
#                                                                            #
#   This copy of Pearson's Crystal Data is licensed to:                      #
#   University of Alberta, Chemistry Department, 1-5 Installations License         #
#                                                                            #
##############################################################################

data_450108
_audit_creation_date                     2023-07-09
_audit_creation_method
;
Pearson's Crystal Data browser
;
#_database_code_PCD                      450108
_database_code_PDF                       04-002-9629

# Entry summary

_chemical_formula_structural             'Pt~3~ Ge'
_chemical_formula_sum                    'Ge Pt3'
_chemical_name_mineral                   ?
_chemical_compound_source                ?
_chemical_name_structure_type            Ir~3~Si,tI16,140
_chemical_formula_weight                 657.9

# Bibliographic data

_publ_section_title
;
Durch extrem rasche Abkuhlung von Schmelzen erzielbare Phasen in den Systemen Ni-Ge, Pd-Ge und Pt-Ge
;
_journal_coden_ASTM                      JCOMAH
_journal_name_full                       'J. Less-Common Met.'
_journal_year                            1980
_journal_volume                          76
_journal_page_first                      181
_journal_page_last                       197
_journal_language                        German
loop_
 _publ_author_name
 _publ_author_address
'Ellner M.'
;
Max Planck Society (MPG)
Max Planck Institut (MPI) fur Metallforschung
Stuttgart
Germany
;
'Predel B.'
;
Stuttgart University
Institut fur Werkstoffwissenschaften
Stuttgart
Germany
;

# Standardized crystallographic data

_cell_length_a                           5.499
_cell_length_b                           5.499
_cell_length_c                           7.933
_cell_angle_alpha                        90
_cell_angle_beta                         90
_cell_angle_gamma                        90
_cell_volume                             239.89
_cell_formula_units_Z                    4
_space_group_IT_number                   140
_space_group_name_H-M_alt                'I 4/m c m'
loop_
 _space_group_symop_id
 _space_group_symop_operation_xyz
 1 'x, y, z'
 2 '-x, -y, -z'
 3 '-x, -y, z'
 4 '-x, y, 1/2-z'
 5 '-x, y, 1/2+z'
 6 '-y, -x, 1/2-z'
 7 '-y, -x, 1/2+z'
 8 '-y, x, -z'
 9 '-y, x, z'
 10 'x, -y, 1/2-z'
 11 'x, -y, 1/2+z'
 12 'x, y, -z'
 13 'y, -x, -z'
 14 'y, -x, z'
 15 'y, x, 1/2-z'
 16 'y, x, 1/2+z'
 17 '1/2+x, 1/2+y, 1/2+z'
 18 '1/2-x, 1/2-y, 1/2-z'
 19 '1/2-x, 1/2-y, 1/2+z'
 20 '1/2-x, 1/2+y, 1-z'
 21 '1/2-x, 1/2+y, 1+z'
 22 '1/2-y, 1/2-x, 1-z'
 23 '1/2-y, 1/2-x, 1+z'
 24 '1/2-y, 1/2+x, 1/2-z'
 25 '1/2-y, 1/2+x, 1/2+z'
 26 '1/2+x, 1/2-y, 1-z'
 27 '1/2+x, 1/2-y, 1+z'
 28 '1/2+x, 1/2+y, 1/2-z'
 29 '1/2+y, 1/2-x, 1/2-z'
 30 '1/2+y, 1/2-x, 1/2+z'
 31 '1/2+y, 1/2+x, 1-z'
 32 '1/2+y, 1/2+x, 1+z'
loop_
 _atom_type_symbol
 Pt
 Ge
loop_
 _atom_site_label
 _atom_site_type_symbol
 _atom_site_symmetry_multiplicity
 _atom_site_Wyckoff_symbol
 _atom_site_fract_x
 _atom_site_fract_y
 _atom_site_fract_z
 _atom_site_occupancy
 Pt2 Pt 8 h 0.188 0.688 0 1
 Ge Ge 4 b 0 0.5 0.25 1
 Pt1 Pt 4 a 0 0 0.25 1


_exptl_crystal_colour                    ?
_exptl_crystal_density_meas              ?
_exptl_crystal_density_diffrn            18.22
_cell_measurement_temperature            ?
_cell_measurement_radiation              'X-rays, Cu Ka'
_cell_measurement_reflns_used            ?
_diffrn_ambient_temperature              ?
_diffrn_measurement_device               'Debye-Scherrer film'
_diffrn_measurement_device_type          ?
_diffrn_radiation_type                   ?
_diffrn_reflns_number                    ?
_exptl_absorpt_coefficient_mu            ?
_exptl_absorpt_correction_type           ?
_computing_structure_solution            ?
_refine_ls_number_parameters             ?
_refine_ls_number_reflns                 ?
_refine_ls_R_factor_gt                   ?
_refine_ls_wR_factor_gt                  ?

# Published diffraction lines

loop_
 _refln_index_h
 _refln_index_k
 _refln_index_l
 _refln_d_spacing
 _refln_intensity_meas
 0 0 2 3.981 6
 1 1 0 3.892 4
 1 1 2 2.779 13
 1 2 1 2.351 53
 0 2 2 2.261 100
 0 0 4 1.984 45
 2 2 0 1.945 51
 1 2 3 1.801 43
 1 3 0 1.74 25
 2 3 1 1.498 8
 2 2 4 1.388 50
 0 4 0 1.375 15
 1 2 5 1.333 19
 1 4 1 1.315 30
 1 3 4 1.308 20
 0 4 2 1.299 3
 1 1 6 1.252 3
 3 3 2 1.232 30
 2 4 0 1.23 3
 0 2 6 1.191 50
 2 4 2 1.175 20
 0 4 4 1.129 10
 3 4 1 1.089 8
 2 4 4 1.042 17
 1 2 7 1.03 3
 1 4 5 1.021 20
 0 0 8 0.992 3
 4 4 2 0.944 5
 3 5 0 0.943 10
 3 3 6 0.925 5
 0 6 0 0.916 7
 2 4 6 0.899 6
 1 6 1 0.898 6

# End of data set 450108

