##############################################################################
#                                                                            #
# In-Pt            # PtIn Pt+                                      #  450316 #
#                                                                            #
##############################################################################
#                                                                            #
#                           Pearson's Crystal Data                           #
#      Crystal Structure Database for Inorganic Compounds (on DVD)           #
#                              Release 2022/23                               #
#                  Editors: Pierre Villars and Karin Cenzual                 #
#                                                                            #
#   Copyright (c) ASM International & Material Phases Data System (MPDS),    #
# Switzerland & National Institute for Materials Science (NIMS), Japan, 2022 #
#                   All rights reserved. Version 2022.07                     #
#                                                                            #
#   This copy of Pearson's Crystal Data is licensed to:                      #
#   University of Alberta, Chemistry Department, 1-5 Installations License         #
#                                                                            #
##############################################################################

data_450316
_audit_creation_date                     2023-07-09
_audit_creation_method
;
Pearson's Crystal Data browser
;
#_database_code_PCD                      450316
_database_code_PDF                       04-002-9813

# Entry summary

_chemical_formula_structural             'Pt In'
_chemical_formula_sum                    'In Pt'
_chemical_name_mineral                   ?
_chemical_compound_source                ?
_chemical_name_structure_type            CuAl,mS20,12
_chemical_formula_weight                 309.9
_chemical_melting_point                  1343

# Bibliographic data

_publ_section_title                      'Kristallstruktur von Pt~1+~In'
_journal_coden_ASTM                      JCOMAH
_journal_name_full                       'J. Less-Common Met.'
_journal_year                            1978
_journal_volume                          57
_journal_page_first                      P1
_journal_page_last                       P7
_journal_language                        German
loop_
 _publ_author_name
 _publ_author_address
'Heinrich S.'
;
Max Planck Society (MPG)
Max Planck Institut (MPI) fur Metallforschung
Stuttgart
Germany
;
'Schubert K.'
;
Max Planck Society (MPG)
Max Planck Institut (MPI) fur Metallforschung
Stuttgart
Germany
;

# Standardized crystallographic data

_cell_length_a                           13.1641
_cell_length_b                           4.4299
_cell_length_c                           7.5797
_cell_angle_alpha                        90
_cell_angle_beta                         123.261
_cell_angle_gamma                        90
_cell_volume                             369.6
_cell_formula_units_Z                    10
_space_group_IT_number                   12
_space_group_name_H-M_alt                'C 1 2/m 1'
loop_
 _space_group_symop_id
 _space_group_symop_operation_xyz
 1 'x, y, z'
 2 '-x, -y, -z'
 3 '-x, y, -z'
 4 'x, -y, z'
 5 '1/2+x, 1/2+y, z'
 6 '1/2-x, 1/2-y, -z'
 7 '1/2-x, 1/2+y, -z'
 8 '1/2+x, 1/2-y, z'
loop_
 _atom_type_symbol
 In
 Pt
loop_
 _atom_site_label
 _atom_site_type_symbol
 _atom_site_symmetry_multiplicity
 _atom_site_Wyckoff_symbol
 _atom_site_fract_x
 _atom_site_fract_y
 _atom_site_fract_z
 _atom_site_occupancy
 In3 In 4 i 0.1267 0 0.7435 1
 Pt2 Pt 4 i 0.2426 0 0.2357 1
 In2 In 4 i 0.3525 0 0.6556 1
 Pt3 Pt 4 i 0.3908 0 0.0539 1
 Pt1 Pt 2 d 0 0.5 0.5 1
 In1 In 2 a 0 0 0 1


_exptl_crystal_colour                    ?
_exptl_crystal_density_meas              ?
_exptl_crystal_density_diffrn            13.92
_cell_measurement_temperature            ?
_cell_measurement_radiation              'X-rays, Cu Ka1'
_cell_measurement_reflns_used            ?
_diffrn_ambient_temperature              ?
_diffrn_measurement_device               diffractometer
_diffrn_measurement_device_type          ?
_diffrn_radiation_type                   'X-rays, Mo Ka'
_diffrn_reflns_number                    ?
_exptl_absorpt_coefficient_mu            ?
_exptl_absorpt_correction_type           ?
_computing_structure_solution            ?
_refine_ls_number_parameters             ?
_refine_ls_number_reflns                 ?
_refine_ls_R_factor_gt                   0.082
_refine_ls_wR_factor_gt                  ?

# Published diffraction lines

loop_
 _refln_index_h
 _refln_index_k
 _refln_index_l
 _refln_d_spacing
 _refln_intensity_meas
 2 0 1 6.332 3
 0 0 1 6.15 2
 2 0 0 5.511 1
 1 1 0 4.111 5
 1 1 1 3.827 3
 2 0 2 3.786 4.5
 4 0 1 3.349 3
 -2 0 1 3.262 3
 -1 1 1 3.117 2
 3 1 0 2.826 2
 1 1 2 2.769 5
 4 0 0 2.752 1
 2 0 3 2.444 5
 5 1 2 2.293 7
 6 0 2 2.263 7
 5 1 1 2.253 7
 -3 1 1 2.217 8
 3 1 3 2.195 8
 6 0 3 2.113 1
 2 2 1 2.091 1
 0 2 1 2.084 1
 1 1 3 2.019 1
 5 1 0 1.972 2
 2 2 2 1.912 3
 4 0 4 1.893 1
 4 2 1 1.847 1
 -2 2 1 1.832 2
 4 2 2 1.816 1
 6 0 4 1.809 1
 -3 1 2 1.728 2
 3 1 4 1.712 1
 2 2 3 1.641 3
 -2 0 3 1.634 2
 8 0 4 1.586 2
 6 2 2 1.583 5
 -2 2 2 1.558 3
 8 0 1 1.55 2
 0 0 4 1.537 3
 -6 0 1 1.529 1
 6 0 5 1.508 1
 4 0 5 1.494 1
 7 1 0 1.482 1
 1 3 0 1.464 1
 1 3 1 1.45 1
 4 2 4 1.439 1
 5 1 5 1.434 2
 9 1 3 1.428 1
 8 0 5 1.417 3
 6 2 0 1.413 1
 6 2 4 1.401 1
 9 1 2 1.394 2
 -3 1 3 1.387 1
 3 1 5 1.377 3
 -5 1 2 1.366 1
 1 3 2 1.363 1
 10 0 3 1.356 1
 -1 1 4 1.346 1
 10 0 4 1.34 1
 -2 2 3 1.315 2
 9 1 1 1.302 2
 5 3 2 1.293 2
 8 2 4 1.289 2
 -7 1 1 1.288 2
 5 3 1 1.285 2
 -6 0 2 1.279 3
 3 3 3 1.275 5
 8 2 1 1.27 2
 0 2 4 1.263 5
 -6 2 1 1.259 1
 1 1 5 1.258 2
 4 2 5 1.239 2
 0 0 5 1.23 1
 5 3 0 1.228 1
 5 1 6 1.203 2
 8 2 5 1.194 3
 11 1 4 1.185 2
 11 1 3 1.181 1
 8 2 0 1.169 5
 10 0 6 1.167 1
 7 3 3 1.165 1
 -3 3 2 1.16 1
 10 2 3 1.156 1
 -5 1 3 1.151 3
 11 1 5 1.147 1
 11 1 2 1.136 1
 -4 2 3 1.131 1
 7 3 4 1.117 1
 12 0 5 1.11 2
 0 4 0 1.109 3
 6 2 6 1.097 3

# End of data set 450316

