##############################################################################
#                                                                            #
# Ge-Pd            # Pd5Ge                                         #  450329 #
#                                                                            #
##############################################################################
#                                                                            #
#                           Pearson's Crystal Data                           #
#      Crystal Structure Database for Inorganic Compounds (on DVD)           #
#                              Release 2022/23                               #
#                  Editors: Pierre Villars and Karin Cenzual                 #
#                                                                            #
#   Copyright (c) ASM International & Material Phases Data System (MPDS),    #
# Switzerland & National Institute for Materials Science (NIMS), Japan, 2022 #
#                   All rights reserved. Version 2022.07                     #
#                                                                            #
#   This copy of Pearson's Crystal Data is licensed to:                      #
#   University of Alberta, Chemistry Department, 1-5 Installations License         #
#                                                                            #
##############################################################################

data_450329
_audit_creation_date                     2023-07-09
_audit_creation_method
;
Pearson's Crystal Data browser
;
#_database_code_PCD                      450329
_database_code_PDF                       04-002-9822

# Entry summary

_chemical_formula_structural             'Pd~5~ Ge'
_chemical_formula_sum                    'Ge Pd5'
_chemical_name_mineral                   ?
_chemical_compound_source                ?
_chemical_name_structure_type            Pd~5~As,mS24,5
_chemical_formula_weight                 604.6

# Bibliographic data

_publ_section_title
'Kristallstruktur von Pd~5~As und Pd~5~Ge'                                    
_journal_coden_ASTM                      JCOMAH
_journal_name_full                       'J. Less-Common Met.'
_journal_year                            1978
_journal_volume                          58
_journal_page_first                      P1
_journal_page_last                       P6
_journal_language                        German
loop_
 _publ_author_name
 _publ_author_address
'Matkovic T.'
;
Max Planck Society (MPG)
Max Planck Institut (MPI) fur Metallforschung
Stuttgart
Germany
;
'Schubert K.'
;
Max Planck Society (MPG)
Max Planck Institut (MPI) fur Metallforschung
Stuttgart
Germany
;

# Standardized crystallographic data

_cell_length_a                           5.509
_cell_length_b                           7.725
_cell_length_c                           8.375
_cell_angle_alpha                        90
_cell_angle_beta                         98.09
_cell_angle_gamma                        90
_cell_volume                             352.87
_cell_formula_units_Z                    4
_space_group_IT_number                   5
_space_group_name_H-M_alt                'C 1 2 1'
loop_
 _space_group_symop_id
 _space_group_symop_operation_xyz
 1 'x, y, z'
 2 '-x, y, -z'
 3 '1/2+x, 1/2+y, z'
 4 '1/2-x, 1/2+y, -z'

# Atomic positions taken from type-defining entry

loop_
 _atom_type_symbol
 Pd
 Ge
loop_
 _atom_site_label
 _atom_site_type_symbol
 _atom_site_symmetry_multiplicity
 _atom_site_Wyckoff_symbol
 _atom_site_fract_x
 _atom_site_fract_y
 _atom_site_fract_z
 _atom_site_occupancy
 Pd1 Pd 4 c 0.034 0.383 0.676 1
 Ge1 Ge 4 c 0.228 0.154 0.215 1
 Pd2 Pd 4 c 0.258 0.140 0.507 1
 Pd3 Pd 4 c 0.460 0.402 0.326 1
 Pd4 Pd 4 c 0.644 0.174 0.147 1
 Pd5 Pd 2 a 0 0.0 0 1
 Pd6 Pd 2 a 0 0.364 0 1


_exptl_crystal_colour                    ?
_exptl_crystal_density_meas              ?
_exptl_crystal_density_diffrn            11.38
_cell_measurement_temperature            ?
_cell_measurement_radiation              'X-rays, Cu Ka'
_cell_measurement_reflns_used            ?
_diffrn_ambient_temperature              ?
_diffrn_measurement_device               'Guinier film'
_diffrn_measurement_device_type          ?
_diffrn_radiation_type                   ?
_diffrn_reflns_number                    ?
_exptl_absorpt_coefficient_mu            ?
_exptl_absorpt_correction_type           ?
_computing_structure_solution            ?
_refine_ls_number_parameters             ?
_refine_ls_number_reflns                 ?
_refine_ls_R_factor_gt                   ?
_refine_ls_wR_factor_gt                  ?

# Published diffraction lines

loop_
 _refln_index_h
 _refln_index_k
 _refln_index_l
 _refln_d_spacing
 _refln_intensity_meas
 0 0 1 8.226 1
 1 1 0 4.463 1
 0 0 2 4.145 1
 1 1 1 3.745 1
 1 1 2 2.872 3
 0 2 2 2.825 3
 0 0 3 2.764 1
 2 0 0 2.727 3
 -2 0 1 2.706 3
 2 0 1 2.488 1
 -2 0 2 2.441 3
 1 3 0 2.329 5
 -1 3 1 2.279 3
 0 2 3 2.246 8
 2 2 0 2.228 8
 -2 2 1 2.218 4
 1 3 1 2.207 3
 2 0 2 2.143 3
 -2 0 3 2.096 7
 -1 3 2 2.084 3
 -1 1 4 1.968 2
 0 4 0 1.932 6
 0 4 1 1.881 3
 -1 3 3 1.836 4
 2 0 3 1.817 5
 -2 0 4 1.776 3
 3 1 0 1.769 2
 0 4 2 1.75 2
 3 1 1 1.683 3
 -1 1 5 1.617 3
 -2 2 4 1.613 2
 3 1 2 1.553 2
 -3 3 1 1.491 2
 1 5 0 1.486 1
 -3 3 2 1.452 3
 2 2 4 1.435 5
 -2 4 3 1.419 5
 1 5 2 1.383 4
 -4 0 1 1.377 4
 -1 1 6 1.365 3
 2 4 3 1.324 4
 1 3 5 1.314 1
 -2 4 4 1.307 4
 -4 0 3 1.295 2
 1 5 3 1.285 4
 1 1 6 1.277 2
 3 1 4 1.264 3
 0 4 5 1.259 2
 3 3 3 1.249 3
 -2 2 6 1.239 4
 -4 2 3 1.23 4

# End of data set 450329

