##############################################################################
#                                                                            #
# Co-Si            # Co2Si3 hp-ht                                  #  450309 #
#                                                                            #
##############################################################################
#                                                                            #
#                           Pearson's Crystal Data                           #
#      Crystal Structure Database for Inorganic Compounds (on DVD)           #
#                              Release 2022/23                               #
#                  Editors: Pierre Villars and Karin Cenzual                 #
#                                                                            #
#   Copyright (c) ASM International & Material Phases Data System (MPDS),    #
# Switzerland & National Institute for Materials Science (NIMS), Japan, 2022 #
#                   All rights reserved. Version 2022.07                     #
#                                                                            #
#   This copy of Pearson's Crystal Data is licensed to:                      #
#   University of Alberta, Chemistry Department, 1-5 Installations License         #
#                                                                            #
##############################################################################

data_450309
_audit_creation_date                     2023-07-09
_audit_creation_method
;
Pearson's Crystal Data browser
;
#_database_code_PCD                      450309
_database_code_PDF                       04-002-9806

# Entry summary

_chemical_formula_structural             'Co~2~ Si~3~'
_chemical_formula_sum                    'Co2 Si3'
_chemical_name_mineral                   ?
_chemical_compound_source                ?
_chemical_name_structure_type            Ru~2~Sn~3~,tP20,116
_chemical_formula_weight                 202.1

# Bibliographic data

_publ_section_title
;
The new chimney-ladder phases Co~2~Si~3~ and Re~4~Ge~7~ formed by treatment at high temperatures and pressures
;
_journal_coden_ASTM                      JCOMAH
_journal_name_full                       'J. Less-Common Met.'
_journal_year                            1982
_journal_volume                          84
_journal_page_first                      87
_journal_page_last                       91
_journal_language                        English
loop_
 _publ_author_name
 _publ_author_address
'Larchev V.I.'
;
Russian Academy of Sciences (RAS)
Vereshchagin V.V. Institute of High Pressure Physics
Moscow-Troitsk
Russia
;
'Popova S.V.'
;
Russian Academy of Sciences (RAS)
Vereshchagin V.V. Institute of High Pressure Physics
Moscow-Troitsk
Russia
;

# Standardized crystallographic data

_cell_length_a                           5.234
_cell_length_b                           5.234
_cell_length_c                           8.543
_cell_angle_alpha                        90
_cell_angle_beta                         90
_cell_angle_gamma                        90
_cell_volume                             234.03
_cell_formula_units_Z                    4
_space_group_IT_number                   116
_space_group_name_H-M_alt                'P -4 c 2'
loop_
 _space_group_symop_id
 _space_group_symop_operation_xyz
 1 'x, y, z'
 2 '-x, -y, z'
 3 '-x, y, 1/2+z'
 4 '-y, -x, 1/2-z'
 5 '-y, x, -z'
 6 'x, -y, 1/2+z'
 7 'y, -x, -z'
 8 'y, x, 1/2-z'

# Atomic positions taken from type-defining entry

loop_
 _atom_type_symbol
 Si
 Co
loop_
 _atom_site_label
 _atom_site_type_symbol
 _atom_site_symmetry_multiplicity
 _atom_site_Wyckoff_symbol
 _atom_site_fract_x
 _atom_site_fract_y
 _atom_site_fract_z
 _atom_site_occupancy
 Si1 Si 8 j 0.655 0.216 0.083 1
 Co1 Co 4 i 0 0.5 0.125 1
 Si2 Si 4 e 0.177 0.177 0.25 1
 Co2 Co 2 c 0 0 0 1
 Co3 Co 2 b 0.5 0.5 0.25 1


_exptl_crystal_colour                    ?
_exptl_crystal_density_meas              5.4(1)
_exptl_crystal_density_diffrn            5.74
_cell_measurement_temperature            ?
_cell_measurement_radiation              'X-rays, Cu Ka'
_cell_measurement_reflns_used            ?
_diffrn_ambient_temperature              ?
_diffrn_measurement_device               ?
_diffrn_measurement_device_type          ?
_diffrn_radiation_type                   ?
_diffrn_reflns_number                    ?
_exptl_absorpt_coefficient_mu            ?
_exptl_absorpt_correction_type           ?
_computing_structure_solution            ?
_refine_ls_number_parameters             ?
_refine_ls_number_reflns                 ?
_refine_ls_R_factor_gt                   ?
_refine_ls_wR_factor_gt                  ?

# Published diffraction lines

loop_
 _refln_index_h
 _refln_index_k
 _refln_index_l
 _refln_d_spacing
 _refln_intensity_meas
 1 0 0 5.241 50
 0 0 2 4.272 50
 2 0 0 2.615 15
 2 1 0 2.342 30
 2 1 2 2.048 15
 1 1 4 1.85 100
 3 0 0 1.744 20
 4 0 0 1.309 25
 3 3 0 1.233 20

# End of data set 450309

