##############################################################################
#                                                                            #
# Ge-Ru            # Ru2Ge3 ht                                     #  450834 #
#                                                                            #
##############################################################################
#                                                                            #
#                           Pearson's Crystal Data                           #
#      Crystal Structure Database for Inorganic Compounds (on DVD)           #
#                              Release 2022/23                               #
#                  Editors: Pierre Villars and Karin Cenzual                 #
#                                                                            #
#   Copyright (c) ASM International & Material Phases Data System (MPDS),    #
# Switzerland & National Institute for Materials Science (NIMS), Japan, 2022 #
#                   All rights reserved. Version 2022.07                     #
#                                                                            #
#   This copy of Pearson's Crystal Data is licensed to:                      #
#   University of Alberta, Chemistry Department, 1-5 Installations License         #
#                                                                            #
##############################################################################

data_450834
_audit_creation_date                     2023-07-09
_audit_creation_method
;
Pearson's Crystal Data browser
;
#_database_code_PCD                      450834
_database_code_PDF                       04-003-0282

# Entry summary

_chemical_formula_structural             'Ru~2~ Ge~3~'
_chemical_formula_sum                    'Ge3 Ru2'
_chemical_name_mineral                   ?
_chemical_compound_source                ?
_chemical_name_structure_type            Ru~2~Sn~3~,tP20,116
_chemical_formula_weight                 419.9

# Bibliographic data

_publ_section_title
;
Diffusionless phase transformations of Ru~2~Si~3~, Ru~2~Ge~3~ and Ru~2~Sn~3~. I. Crystal structure investigations
;
_journal_coden_ASTM                      JCOMAH
_journal_name_full                       'J. Less-Common Met.'
_journal_year                            1975
_journal_volume                          40
_journal_page_first                      139
_journal_page_last                       144
_journal_language                        English
loop_
 _publ_author_name
 _publ_author_address
'Pushcharovskii D.Y.'
;
Geneva University (UNIGE)
Laboratoire de Cristallographie aux Rayons X
Geneva
Switzerland
;
'Yvon K.'
;
Geneva University (UNIGE)
Laboratoire de Cristallographie aux Rayons X
Geneva
Switzerland
;
'Parthe E.'
;
Geneva University (UNIGE)
Laboratoire de Cristallographie aux Rayons X
Geneva
Switzerland
;

# Standardized crystallographic data

_cell_length_a                           5.739
_cell_length_b                           5.739
_cell_length_c                           9.952
_cell_angle_alpha                        90
_cell_angle_beta                         90
_cell_angle_gamma                        90
_cell_volume                             327.78
_cell_formula_units_Z                    4
_space_group_IT_number                   116
_space_group_name_H-M_alt                'P -4 c 2'
loop_
 _space_group_symop_id
 _space_group_symop_operation_xyz
 1 'x, y, z'
 2 '-x, -y, z'
 3 '-x, y, 1/2+z'
 4 '-y, -x, 1/2-z'
 5 '-y, x, -z'
 6 'x, -y, 1/2+z'
 7 'y, -x, -z'
 8 'y, x, 1/2-z'
loop_
 _atom_type_symbol
 Ge
 Ru
loop_
 _atom_site_label
 _atom_site_type_symbol
 _atom_site_symmetry_multiplicity
 _atom_site_Wyckoff_symbol
 _atom_site_fract_x
 _atom_site_fract_y
 _atom_site_fract_z
 _atom_site_occupancy
 Ge1 Ge 8 j 0.655 0.216 0.083 1
 Ru1 Ru 4 i 0 0.5 0.125 1
 Ge2 Ge 4 e 0.177 0.177 0.25 1
 Ru3 Ru 2 c 0 0 0 1
 Ru2 Ru 2 b 0.5 0.5 0.25 1


_exptl_crystal_colour                    ?
_exptl_crystal_density_meas              ?
_exptl_crystal_density_diffrn            8.51
_cell_measurement_temperature            1073
_cell_measurement_radiation              X-rays
_cell_measurement_reflns_used            ?
_diffrn_ambient_temperature              1073
_diffrn_measurement_device               'Guinier-Lenne film'
_diffrn_measurement_device_type          ?
_diffrn_radiation_type                   X-rays
_diffrn_reflns_number                    ?
_exptl_absorpt_coefficient_mu            ?
_exptl_absorpt_correction_type           ?
_computing_structure_solution            ?
_refine_ls_number_parameters             ?
_refine_ls_number_reflns                 ?
_refine_ls_R_factor_gt                   ?
_refine_ls_wR_factor_gt                  ?
_pd_proc_ls_proof_R_factor               ?
_pd_proc_ls_proof_wR_factor              ?
_refine_ls_R_I_factor                    ?

# End of data set 450834

