##############################################################################
#                                                                            #
# Ge-Ru            # Ru2Ge3 rt                                     #  450833 #
#                                                                            #
##############################################################################
#                                                                            #
#                           Pearson's Crystal Data                           #
#      Crystal Structure Database for Inorganic Compounds (on DVD)           #
#                              Release 2022/23                               #
#                  Editors: Pierre Villars and Karin Cenzual                 #
#                                                                            #
#   Copyright (c) ASM International & Material Phases Data System (MPDS),    #
# Switzerland & National Institute for Materials Science (NIMS), Japan, 2022 #
#                   All rights reserved. Version 2022.07                     #
#                                                                            #
#   This copy of Pearson's Crystal Data is licensed to:                      #
#   University of Alberta, Chemistry Department, 1-5 Installations License         #
#                                                                            #
##############################################################################

data_450833
_audit_creation_date                     2023-07-09
_audit_creation_method
;
Pearson's Crystal Data browser
;
#_database_code_PCD                      450833
_database_code_PDF                       04-003-0281

# Entry summary

_chemical_formula_structural             'Ru~2~ Ge~3~'
_chemical_formula_sum                    'Ge3 Ru2'
_chemical_name_mineral                   ?
_chemical_compound_source                ?
_chemical_name_structure_type            Ru~2~Ge~3~,oP40,60
_chemical_formula_weight                 419.9

# Bibliographic data

_publ_section_title
;
Diffusionless phase transformations of Ru~2~Si~3~, Ru~2~Ge~3~ and Ru~2~Sn~3~. I. Crystal structure investigations
;
_journal_coden_ASTM                      JCOMAH
_journal_name_full                       'J. Less-Common Met.'
_journal_year                            1975
_journal_volume                          40
_journal_page_first                      139
_journal_page_last                       144
_journal_language                        English
loop_
 _publ_author_name
 _publ_author_address
'Pushcharovskii D.Y.'
;
Geneva University (UNIGE)
Laboratoire de Cristallographie aux Rayons X
Geneva
Switzerland
;
'Yvon K.'
;
Geneva University (UNIGE)
Laboratoire de Cristallographie aux Rayons X
Geneva
Switzerland
;
'Parthe E.'
;
Geneva University (UNIGE)
Laboratoire de Cristallographie aux Rayons X
Geneva
Switzerland
;

# Standardized crystallographic data

_cell_length_a                           11.436
_cell_length_b                           9.238
_cell_length_c                           5.716
_cell_angle_alpha                        90
_cell_angle_beta                         90
_cell_angle_gamma                        90
_cell_volume                             603.87
_cell_formula_units_Z                    8
_space_group_IT_number                   60
_space_group_name_H-M_alt                'P b c n'
loop_
 _space_group_symop_id
 _space_group_symop_operation_xyz
 1 'x, y, z'
 2 '1/2-x, 1/2-y, 1/2+z'
 3 '1/2-x, 1/2+y, z'
 4 '-x, -y, -z'
 5 '-x, y, 1/2-z'
 6 '1/2+x, 1/2-y, -z'
 7 '1/2+x, 1/2+y, 1/2-z'
 8 'x, -y, 1/2+z'
loop_
 _atom_type_symbol
 Ge
 Ru
loop_
 _atom_site_label
 _atom_site_type_symbol
 _atom_site_symmetry_multiplicity
 _atom_site_Wyckoff_symbol
 _atom_site_fract_x
 _atom_site_fract_y
 _atom_site_fract_z
 _atom_site_occupancy
 Ge1 Ge 8 d 0.074 0.277 0.034 1
 Ge2 Ge 8 d 0.171 0.432 0.412 1
 Ru1 Ru 8 d 0.252 0.187 0.258 1
 Ge3 Ge 8 d 0.363 0.401 0.101 1
 Ru3 Ru 4 c 0 0.072 0.25 1
 Ru2 Ru 4 c 0 0.548 0.25 1


_exptl_crystal_colour                    ?
_exptl_crystal_density_meas              ?
_exptl_crystal_density_diffrn            9.24
_cell_measurement_temperature            ?
_cell_measurement_radiation              ?
_cell_measurement_reflns_used            ?
_diffrn_ambient_temperature              ?
_diffrn_measurement_device               diffractometer
_diffrn_measurement_device_type          ?
_diffrn_radiation_type                   X-rays
_diffrn_reflns_number                    ?
_exptl_absorpt_coefficient_mu            ?
_exptl_absorpt_correction_type           ?
_computing_structure_solution            ?
_refine_ls_number_parameters             ?
_refine_ls_number_reflns                 ?
_refine_ls_R_factor_gt                   ?
_refine_ls_wR_factor_gt                  ?
_pd_proc_ls_proof_R_factor               ?
_pd_proc_ls_proof_wR_factor              ?
_refine_ls_R_I_factor                    ?

# End of data set 450833

