##############################################################################
#                                                                            #
# Ge-Rh            # RhGe                                          #  451200 #
#                                                                            #
##############################################################################
#                                                                            #
#                           Pearson's Crystal Data                           #
#      Crystal Structure Database for Inorganic Compounds (on DVD)           #
#                              Release 2022/23                               #
#                  Editors: Pierre Villars and Karin Cenzual                 #
#                                                                            #
#   Copyright (c) ASM International & Material Phases Data System (MPDS),    #
# Switzerland & National Institute for Materials Science (NIMS), Japan, 2022 #
#                   All rights reserved. Version 2022.07                     #
#                                                                            #
#   This copy of Pearson's Crystal Data is licensed to:                      #
#   University of Alberta, Chemistry Department, 1-5 Installations License         #
#                                                                            #
##############################################################################

data_451200
_audit_creation_date                     2023-07-09
_audit_creation_method
;
Pearson's Crystal Data browser
;
#_database_code_PCD                      451200
_database_code_PDF                       04-003-0617

# Entry summary

_chemical_formula_structural             'Rh Ge'
_chemical_formula_sum                    'Ge Rh'
_chemical_name_mineral                   ?
_chemical_compound_source                ?
_chemical_name_structure_type            FeAs,oP8,62
_chemical_formula_weight                 175.5

# Bibliographic data

_publ_section_title
;
The rhodium-germanium system. I. The crystal structures of Rh~2~Ge, Rh~5~Ge~3~ and RhGe
;
_journal_coden_ASTM                      ACCRA9
_journal_name_full                       'Acta Crystallogr.'
_journal_year                            1955
_journal_volume                          8
_journal_page_first                      15
_journal_page_last                       21
_journal_language                        English
loop_
 _publ_author_name
 _publ_author_address
'Geller S.'
;
AT&T Bell Laboratories Inc.
Murray Hill
U.S.A. New Jersey
;

# Standardized crystallographic data

_cell_length_a                           5.7
_cell_length_b                           3.25
_cell_length_c                           6.48
_cell_angle_alpha                        90
_cell_angle_beta                         90
_cell_angle_gamma                        90
_cell_volume                             120.04
_cell_formula_units_Z                    4
_space_group_IT_number                   62
_space_group_name_H-M_alt                'P n m a'
loop_
 _space_group_symop_id
 _space_group_symop_operation_xyz
 1 'x, y, z'
 2 '1/2-x, -y, 1/2+z'
 3 '1/2-x, 1/2+y, 1/2+z'
 4 '-x, -y, -z'
 5 '-x, 1/2+y, -z'
 6 '1/2+x, 1/2-y, 1/2-z'
 7 '1/2+x, y, 1/2-z'
 8 'x, 1/2-y, z'
loop_
 _atom_type_symbol
 Rh
 Ge
loop_
 _atom_site_label
 _atom_site_type_symbol
 _atom_site_symmetry_multiplicity
 _atom_site_Wyckoff_symbol
 _atom_site_fract_x
 _atom_site_fract_y
 _atom_site_fract_z
 _atom_site_occupancy
 Rh Rh 4 c 0.007 0.25 0.202 1
 Ge Ge 4 c 0.191 0.25 0.564 1


_exptl_crystal_colour                    ?
_exptl_crystal_density_meas              9.7
_exptl_crystal_density_diffrn            9.71
_cell_measurement_temperature            ?
_cell_measurement_radiation              'X-rays, Mo Ka'
_cell_measurement_reflns_used            ?
_diffrn_ambient_temperature              ?
_diffrn_measurement_device               'Weissenberg photographs'
_diffrn_measurement_device_type          ?
_diffrn_radiation_type                   'X-rays, Mo Ka'
_diffrn_reflns_number                    ?
_exptl_absorpt_coefficient_mu            39.8
_exptl_absorpt_correction_type           ?
_computing_structure_solution            'Patterson synthesis'
_refine_ls_number_parameters             ?
_refine_ls_number_reflns                 ?
_refine_ls_R_factor_gt                   0.12
_refine_ls_wR_factor_gt                  ?

# End of data set 451200

