##############################################################################
#                                                                            #
# Ge-Pt            # PtGe                                          #  451603 #
#                                                                            #
##############################################################################
#                                                                            #
#                           Pearson's Crystal Data                           #
#      Crystal Structure Database for Inorganic Compounds (on DVD)           #
#                              Release 2022/23                               #
#                  Editors: Pierre Villars and Karin Cenzual                 #
#                                                                            #
#   Copyright (c) ASM International & Material Phases Data System (MPDS),    #
# Switzerland & National Institute for Materials Science (NIMS), Japan, 2022 #
#                   All rights reserved. Version 2022.07                     #
#                                                                            #
#   This copy of Pearson's Crystal Data is licensed to:                      #
#   University of Alberta, Chemistry Department, 1-5 Installations License         #
#                                                                            #
##############################################################################

data_451603
_audit_creation_date                     2023-07-09
_audit_creation_method
;
Pearson's Crystal Data browser
;
#_database_code_PCD                      451603
_database_code_PDF                       04-003-0991

# Entry summary

_chemical_formula_structural             'Pt Ge'
_chemical_formula_sum                    'Ge Pt'
_chemical_name_mineral                   ?
_chemical_compound_source                ?
_chemical_name_structure_type            FeAs,oP8,62
_chemical_formula_weight                 267.7

# Bibliographic data

_publ_section_title
;
Crystal structure and linear thermal expansivities of platinum silicide and platinum germanide
;
_journal_coden_ASTM                      ACBCAR
_journal_name_full                       'Acta Crystallogr. B'
_journal_year                            1973
_journal_volume                          29
_journal_page_first                      1991
_journal_page_last                       1994
_journal_language                        English
loop_
 _publ_author_name
 _publ_author_address
'Graeber E.J.'
;
Sandia National Laboratories (SNL)
Albuquerque
U.S.A. New Mexico
;
'Baughman R.J.'
;
Sandia National Laboratories (SNL)
Albuquerque
U.S.A. New Mexico
;
'Morosin B.'
;
Sandia National Laboratories (SNL)
Albuquerque
U.S.A. New Mexico
;

# Standardized crystallographic data

_cell_length_a                           5.719
_cell_length_b                           3.697
_cell_length_c                           6.084
_cell_angle_alpha                        90
_cell_angle_beta                         90
_cell_angle_gamma                        90
_cell_volume                             128.63
_cell_formula_units_Z                    4
_space_group_IT_number                   62
_space_group_name_H-M_alt                'P n m a'
loop_
 _space_group_symop_id
 _space_group_symop_operation_xyz
 1 'x, y, z'
 2 '1/2-x, -y, 1/2+z'
 3 '1/2-x, 1/2+y, 1/2+z'
 4 '-x, -y, -z'
 5 '-x, 1/2+y, -z'
 6 '1/2+x, 1/2-y, 1/2-z'
 7 '1/2+x, y, 1/2-z'
 8 'x, 1/2-y, z'
loop_
 _atom_type_symbol
 Pt
 Ge
loop_
 _atom_site_label
 _atom_site_type_symbol
 _atom_site_symmetry_multiplicity
 _atom_site_Wyckoff_symbol
 _atom_site_fract_x
 _atom_site_fract_y
 _atom_site_fract_z
 _atom_site_occupancy
 Pt Pt 4 c -0.0005 0.25 0.1908 1
 Ge Ge 4 c 0.185 0.25 0.59 1


_exptl_crystal_colour                    ?
_exptl_crystal_density_meas              13.76
_exptl_crystal_density_diffrn            13.82
_cell_measurement_temperature            295
_cell_measurement_radiation              'X-rays, Cu Ka'
_cell_measurement_wavelength             1.54051
_pd_proc_wavelength                      1.54051
_cell_measurement_reflns_used            16
_diffrn_ambient_temperature              ?
_diffrn_measurement_device               diffractometer
_diffrn_measurement_device_type          ?
_diffrn_radiation_type                   'X-rays, Mo Ka'
_diffrn_reflns_number                    ?
_exptl_absorpt_coefficient_mu            143.80
_exptl_absorpt_correction_type           yes
_computing_structure_solution            'starting values from the literature'
_refine_ls_number_parameters             ?
_refine_ls_number_reflns                 131
_refine_ls_R_factor_gt                   0.061
_refine_ls_wR_factor_gt                  ?

# End of data set 451603

