##############################################################################
#                                                                            #
# In-Ni            # NiIn rt                                       #  452314 #
#                                                                            #
##############################################################################
#                                                                            #
#                           Pearson's Crystal Data                           #
#      Crystal Structure Database for Inorganic Compounds (on DVD)           #
#                              Release 2022/23                               #
#                  Editors: Pierre Villars and Karin Cenzual                 #
#                                                                            #
#   Copyright (c) ASM International & Material Phases Data System (MPDS),    #
# Switzerland & National Institute for Materials Science (NIMS), Japan, 2022 #
#                   All rights reserved. Version 2022.07                     #
#                                                                            #
#   This copy of Pearson's Crystal Data is licensed to:                      #
#   University of Alberta, Chemistry Department, 1-5 Installations License         #
#                                                                            #
##############################################################################

data_452314
_audit_creation_date                     2023-07-09
_audit_creation_method
;
Pearson's Crystal Data browser
;
#_database_code_PCD                      452314
_database_code_PDF                       04-003-1607

# Entry summary

_chemical_formula_structural             'Ni In'
_chemical_formula_sum                    'In Ni'
_chemical_name_mineral                   ?
_chemical_compound_source                ?
_chemical_name_structure_type            CoSn,hP6,191
_chemical_formula_weight                 173.5
_chemical_melting_point                  1189

# Bibliographic data

_publ_section_title                      'Das System Nickel-Indium'
_journal_coden_ASTM                      ZEMTAE
_journal_name_full                       'Z. Metallkd.'
_journal_year                            1950
_journal_volume                          41
_journal_page_first                      401
_journal_page_last                       406
_journal_language                        German
loop_
 _publ_author_name
 _publ_author_address
'Hellner E.'
;
Marburg Philipps University
Institut fur Mineralogie, Petrologie und Kristallographie
Marburg
Germany
;

# Standardized crystallographic data

_cell_length_a                           4.536
_cell_length_b                           4.536
_cell_length_c                           4.344
_cell_angle_alpha                        90
_cell_angle_beta                         90
_cell_angle_gamma                        120
_cell_volume                             77.4
_cell_formula_units_Z                    3
_space_group_IT_number                   191
_space_group_name_H-M_alt                'P 6/m m m'
loop_
 _space_group_symop_id
 _space_group_symop_operation_xyz
 1 'x, y, z'
 2 '-x+y, -x, -z'
 3 '-x+y, -x, z'
 4 '-x+y, y, -z'
 5 '-x+y, y, z'
 6 '-x, -x+y, -z'
 7 '-x, -x+y, z'
 8 '-x, -y, -z'
 9 '-x, -y, z'
 10 '-y, -x, -z'
 11 '-y, -x, z'
 12 '-y, x-y, -z'
 13 '-y, x-y, z'
 14 'x, x-y, -z'
 15 'x, x-y, z'
 16 'x, y, -z'
 17 'x-y, -y, -z'
 18 'x-y, -y, z'
 19 'x-y, x, -z'
 20 'x-y, x, z'
 21 'y, -x+y, -z'
 22 'y, -x+y, z'
 23 'y, x, -z'
 24 'y, x, z'
loop_
 _atom_type_symbol
 Ni
 In
loop_
 _atom_site_label
 _atom_site_type_symbol
 _atom_site_symmetry_multiplicity
 _atom_site_Wyckoff_symbol
 _atom_site_fract_x
 _atom_site_fract_y
 _atom_site_fract_z
 _atom_site_occupancy
 Ni Ni 3 f 0.5 0 0 1
 In2 In 2 d 0.333333 0.666667 0.5 1
 In1 In 1 a 0 0 0 1


_exptl_crystal_colour                    ?
_exptl_crystal_density_meas              ?
_exptl_crystal_density_diffrn            11.17
_cell_measurement_temperature            ?
_cell_measurement_radiation              'X-rays, Cu Ka'
_cell_measurement_reflns_used            ?
_diffrn_ambient_temperature              ?
_diffrn_measurement_device               'Bohlin-Seemann film'
_diffrn_measurement_device_type          ?
_diffrn_radiation_type                   ?
_diffrn_reflns_number                    ?
_exptl_absorpt_coefficient_mu            ?
_exptl_absorpt_correction_type           ?
_computing_structure_solution            ?
_refine_ls_number_parameters             ?
_refine_ls_number_reflns                 ?
_refine_ls_R_factor_gt                   ?
_refine_ls_wR_factor_gt                  ?

# Published diffraction lines

loop_
 _refln_index_h
 _refln_index_k
 _refln_index_l
 _refln_d_spacing
 _refln_intensity_meas
 1 0 1 3.146 5.5
 1 1 0 2.622 5.5
 1 1 1 2.248 4
 0 0 2 2.175 5.5
 2 0 1 2.013 7
 1 0 2 1.964 1
 3 0 1 1.721 3.5
 2 1 0 1.72 0.5
 1 1 2 1.677 5.5
 2 1 1 1.599 5.5
 2 0 2 1.572 3.5
 3 0 0 1.515 4.5
 1 0 3 1.383 4.5
 2 1 2 1.346 1.5
 2 2 0 1.31 5.5
 1 1 3 1.268 3.5
 3 0 2 1.243 5
 2 0 3 1.223 5.5
 3 1 1 1.21 3.5
 4 0 0 1.135 1.5
 2 2 2 1.123 5.5
 2 1 3 1.109 3.5
 4 0 1 1.099 4.5
 0 0 4 1.087 2.5
 3 0 3 1.048 2.5
 3 2 1 1.014 3.5
 4 0 2 1.005 4.5
 4 1 0 0.992 3.5
 2 0 4 0.98 1
 4 1 1 0.967 3.5
 3 1 3 0.952 3.5
 3 2 2 0.939 0.5
 2 1 4 0.919 0.5
 4 1 2 0.902 4.5
 4 0 3 0.894 4.5
 3 0 4 0.884 3.5
 3 3 0 0.875 2.5
 1 0 5 0.855 3.5
 3 2 3 0.847 3.5
 4 2 1 0.842 4.5
 2 2 4 0.837 4.5

# End of data set 452314

