##############################################################################
#                                                                            #
# Rh-Sn            # RhSn2 rt                                      #  452329 #
#                                                                            #
##############################################################################
#                                                                            #
#                           Pearson's Crystal Data                           #
#      Crystal Structure Database for Inorganic Compounds (on DVD)           #
#                              Release 2022/23                               #
#                  Editors: Pierre Villars and Karin Cenzual                 #
#                                                                            #
#   Copyright (c) ASM International & Material Phases Data System (MPDS),    #
# Switzerland & National Institute for Materials Science (NIMS), Japan, 2022 #
#                   All rights reserved. Version 2022.07                     #
#                                                                            #
#   This copy of Pearson's Crystal Data is licensed to:                      #
#   University of Alberta, Chemistry Department, 1-5 Installations License         #
#                                                                            #
##############################################################################

data_452329
_audit_creation_date                     2023-07-09
_audit_creation_method
;
Pearson's Crystal Data browser
;
#_database_code_PCD                      452329
_database_code_PDF                       ?

# Entry summary

_chemical_formula_structural             'Rh Sn~2~'
_chemical_formula_sum                    'Rh Sn2'
_chemical_name_mineral                   ?
_chemical_compound_source                ?
_chemical_name_structure_type            CoGe~2~,oS24,64
_chemical_formula_weight                 340.3

# Bibliographic data

_publ_section_title
;
Zur Kristallchemie der B-Metall-reichsten Phasen in Legierungen von Ubergangsmetallen der Eisen- und Platintriaden mit Elementen der vierten Nebengruppe
;
_journal_coden_ASTM                      ZEMTAE
_journal_name_full                       'Z. Metallkd.'
_journal_year                            1950
_journal_volume                          41
_journal_page_first                      433
_journal_page_last                       441
_journal_language                        German
loop_
 _publ_author_name
 _publ_author_address
'Schubert K.'
;
Max Planck Society (MPG)
Max Planck Institut (MPI) fur Metallforschung
Stuttgart
Germany
;
'Pfisterer H.'
;
Max Planck Society (MPG)
Max Planck Institut (MPI) fur Metallforschung
Stuttgart
Germany
;

# Standardized crystallographic data

_cell_length_a                           11.97
_cell_length_b                           6.319
_cell_length_c                           6.319
_cell_angle_alpha                        90
_cell_angle_beta                         90
_cell_angle_gamma                        90
_cell_volume                             477.96
_cell_formula_units_Z                    8
_space_group_IT_number                   64
_space_group_name_H-M_alt                'C m c e'
loop_
 _space_group_symop_id
 _space_group_symop_operation_xyz
 1 'x, y, z'
 2 '-x, 1/2-y, 1/2+z'
 3 '-x, -y, -z'
 4 '-x, 1/2+y, 1/2-z'
 5 '-x, y, z'
 6 'x, 1/2-y, 1/2+z'
 7 'x, -y, -z'
 8 'x, 1/2+y, 1/2-z'
 9 '1/2+x, 1/2+y, z'
 10 '1/2-x, 1-y, 1/2+z'
 11 '1/2-x, 1/2-y, -z'
 12 '1/2-x, 1+y, 1/2-z'
 13 '1/2-x, 1/2+y, z'
 14 '1/2+x, 1-y, 1/2+z'
 15 '1/2+x, 1/2-y, -z'
 16 '1/2+x, 1+y, 1/2-z'

# Atomic positions taken from type-defining entry

loop_
 _atom_type_symbol
 Sn
 Rh
loop_
 _atom_site_label
 _atom_site_type_symbol
 _atom_site_symmetry_multiplicity
 _atom_site_Wyckoff_symbol
 _atom_site_fract_x
 _atom_site_fract_y
 _atom_site_fract_z
 _atom_site_occupancy
 Sn1 Sn 8 f 0 0.158 0.342 1
 Sn2 Sn 8 e 0.25 0.25 0.25 1
 Rh1 Rh 8 d 0.113 0 0 1


_exptl_crystal_colour                    ?
_exptl_crystal_density_meas              ?
_exptl_crystal_density_diffrn            9.46
_cell_measurement_temperature            ?
_cell_measurement_radiation              'X-rays, Cu Ka'
_cell_measurement_reflns_used            ?
_diffrn_ambient_temperature              ?
_diffrn_measurement_device               film
_diffrn_measurement_device_type          ?
_diffrn_radiation_type                   ?
_diffrn_reflns_number                    ?
_exptl_absorpt_coefficient_mu            ?
_exptl_absorpt_correction_type           ?
_computing_structure_solution            ?
_refine_ls_number_parameters             ?
_refine_ls_number_reflns                 ?
_refine_ls_R_factor_gt                   ?
_refine_ls_wR_factor_gt                  ?

# End of data set 452329

