##############################################################################
#                                                                            #
# Pt-Si            # Pt3Si rt                                      #  452344 #
#                                                                            #
##############################################################################
#                                                                            #
#                           Pearson's Crystal Data                           #
#      Crystal Structure Database for Inorganic Compounds (on DVD)           #
#                              Release 2022/23                               #
#                  Editors: Pierre Villars and Karin Cenzual                 #
#                                                                            #
#   Copyright (c) ASM International & Material Phases Data System (MPDS),    #
# Switzerland & National Institute for Materials Science (NIMS), Japan, 2022 #
#                   All rights reserved. Version 2022.07                     #
#                                                                            #
#   This copy of Pearson's Crystal Data is licensed to:                      #
#   University of Alberta, Chemistry Department, 1-5 Installations License         #
#                                                                            #
##############################################################################

data_452344
_audit_creation_date                     2023-07-09
_audit_creation_method
;
Pearson's Crystal Data browser
;
#_database_code_PCD                      452344
_database_code_PDF                       04-003-1630

# Entry summary

_chemical_formula_structural             'Pt~3~ Si'
_chemical_formula_sum                    'Pt3 Si'
_chemical_name_mineral                   ?
_chemical_compound_source                ?
_chemical_name_structure_type            Pt~3~Ge,mS16,12
_chemical_formula_weight                 613.4

# Bibliographic data

_publ_section_title
'Zum Aufbau des Systems Platin-Silizium'                                      
_journal_coden_ASTM                      ZEMTAE
_journal_name_full                       'Z. Metallkd.'
_journal_year                            1964
_journal_volume                          55
_journal_page_first                      503
_journal_page_last                       511
_journal_language                        German
loop_
 _publ_author_name
 _publ_author_address
'Gohle R.'
;
Max Planck Society (MPG)
Max Planck Institut (MPI) fur Metallforschung
Stuttgart
Germany
;
'Schubert K.'
;
Max Planck Society (MPG)
Max Planck Institut (MPI) fur Metallforschung
Stuttgart
Germany
;

# Standardized crystallographic data

_cell_length_a                           7.702
_cell_length_b                           7.765
_cell_length_c                           5.378
_cell_angle_alpha                        90
_cell_angle_beta                         133.81
_cell_angle_gamma                        90
_cell_volume                             232.11
_cell_formula_units_Z                    4
_space_group_IT_number                   12
_space_group_name_H-M_alt                'C 1 2/m 1'
loop_
 _space_group_symop_id
 _space_group_symop_operation_xyz
 1 'x, y, z'
 2 '-x, -y, -z'
 3 '-x, y, -z'
 4 'x, -y, z'
 5 '1/2+x, 1/2+y, z'
 6 '1/2-x, 1/2-y, -z'
 7 '1/2-x, 1/2+y, -z'
 8 '1/2+x, 1/2-y, z'

# Atomic positions taken from type-defining entry

loop_
 _atom_type_symbol
 Pt
 Si
loop_
 _atom_site_label
 _atom_site_type_symbol
 _atom_site_symmetry_multiplicity
 _atom_site_Wyckoff_symbol
 _atom_site_fract_x
 _atom_site_fract_y
 _atom_site_fract_z
 _atom_site_occupancy
 Pt1 Pt 4 i 0.2 0 0.0 1
 Si1 Si 4 i 0.25 0 0.5 1
 Pt2 Pt 4 h 0 0.25 0.5 1
 Pt3 Pt 4 g 0 0.3 0 1


_exptl_crystal_colour                    ?
_exptl_crystal_density_meas              ?
_exptl_crystal_density_diffrn            17.55
_cell_measurement_temperature            ?
_cell_measurement_radiation              'X-rays, Cu Ka'
_cell_measurement_reflns_used            ?
_diffrn_ambient_temperature              ?
_diffrn_measurement_device               ?
_diffrn_measurement_device_type          ?
_diffrn_radiation_type                   ?
_diffrn_reflns_number                    ?
_exptl_absorpt_coefficient_mu            ?
_exptl_absorpt_correction_type           ?
_computing_structure_solution            ?
_refine_ls_number_parameters             ?
_refine_ls_number_reflns                 ?
_refine_ls_R_factor_gt                   ?
_refine_ls_wR_factor_gt                  ?

# Published diffraction lines

loop_
 _refln_index_h
 _refln_index_k
 _refln_index_l
 _refln_d_spacing
 _refln_intensity_meas
 1 1 1 4.551 2
 0 2 0 3.884 5
 -2 0 0 3.85 4
 2 0 2 2.782 5
 -2 2 0 2.734 6
 -2 0 2 2.694 6
 1 1 3 2.361 6
 1 3 1 2.346 5
 -1 3 1 2.332 7
 -1 1 3 2.319 5
 2 2 2 2.266 8
 -2 2 2 2.212 7
 0 4 0 1.941 6
 -4 0 0 1.926 6
 3 1 3 1.804 3
 3 3 1 1.784 4
 -3 3 1 1.765 4
 -3 1 3 1.749 4
 0 2 4 1.736 5
 -4 2 0 1.726 1
 -2 0 4 1.71 1
 2 2 4 1.599 1
 4 2 2 1.593 2
 1 1 5 1.503 1.5
 -1 5 1 1.491 2
 -3 3 3 1.474 1.5
 4 0 4 1.39 1
 0 4 4 1.372 1
 -4 4 0 1.366 4
 -4 0 4 1.346 2

# End of data set 452344

