##############################################################################
#                                                                            #
# Ge-Ir            # Ir3Ge7                                        #  452323 #
#                                                                            #
##############################################################################
#                                                                            #
#                           Pearson's Crystal Data                           #
#      Crystal Structure Database for Inorganic Compounds (on DVD)           #
#                              Release 2022/23                               #
#                  Editors: Pierre Villars and Karin Cenzual                 #
#                                                                            #
#   Copyright (c) ASM International & Material Phases Data System (MPDS),    #
# Switzerland & National Institute for Materials Science (NIMS), Japan, 2022 #
#                   All rights reserved. Version 2022.07                     #
#                                                                            #
#   This copy of Pearson's Crystal Data is licensed to:                      #
#   University of Alberta, Chemistry Department, 1-5 Installations License         #
#                                                                            #
##############################################################################

data_452323
_audit_creation_date                     2023-07-09
_audit_creation_method
;
Pearson's Crystal Data browser
;
#_database_code_PCD                      452323
_database_code_PDF                       04-003-1615

# Entry summary

_chemical_formula_structural             'Ir~3~ Ge~7~'
_chemical_formula_sum                    'Ge7 Ir3'
_chemical_name_mineral                   ?
_chemical_compound_source                ?
_chemical_name_structure_type            Ru~3~Sn~7~,cI40,229
_chemical_formula_weight                 1084.8

# Bibliographic data

_publ_section_title
;
Zur Kristallchemie der B-Metall-reichsten Phasen in Legierungen von Ubergangsmetallen der Eisen- und Platintriaden mit Elementen der vierten Nebengruppe
;
_journal_coden_ASTM                      ZEMTAE
_journal_name_full                       'Z. Metallkd.'
_journal_year                            1950
_journal_volume                          41
_journal_page_first                      433
_journal_page_last                       441
_journal_language                        German
loop_
 _publ_author_name
 _publ_author_address
'Schubert K.'
;
Max Planck Society (MPG)
Max Planck Institut (MPI) fur Metallforschung
Stuttgart
Germany
;
'Pfisterer H.'
;
Max Planck Society (MPG)
Max Planck Institut (MPI) fur Metallforschung
Stuttgart
Germany
;

# Standardized crystallographic data

_cell_length_a                           8.735
_cell_length_b                           8.735
_cell_length_c                           8.735
_cell_angle_alpha                        90
_cell_angle_beta                         90
_cell_angle_gamma                        90
_cell_volume                             666.48
_cell_formula_units_Z                    4
_space_group_IT_number                   229
_space_group_name_H-M_alt                'I m -3 m'
loop_
 _space_group_symop_id
 _space_group_symop_operation_xyz
 1 'x, y, z'
 2 '-x, -y, -z'
 3 '-x, -y, z'
 4 '-x, -z, -y'
 5 '-x, -z, y'
 6 '-x, y, -z'
 7 '-x, y, z'
 8 '-x, z, -y'
 9 '-x, z, y'
 10 '-y, -x, -z'
 11 '-y, -x, z'
 12 '-y, -z, -x'
 13 '-y, -z, x'
 14 '-y, x, -z'
 15 '-y, x, z'
 16 '-y, z, -x'
 17 '-y, z, x'
 18 '-z, -x, -y'
 19 '-z, -x, y'
 20 '-z, -y, -x'
 21 '-z, -y, x'
 22 '-z, x, -y'
 23 '-z, x, y'
 24 '-z, y, -x'
 25 '-z, y, x'
 26 'x, -y, -z'
 27 'x, -y, z'
 28 'x, -z, -y'
 29 'x, -z, y'
 30 'x, y, -z'
 31 'x, z, -y'
 32 'x, z, y'
 33 'y, -x, -z'
 34 'y, -x, z'
 35 'y, -z, -x'
 36 'y, -z, x'
 37 'y, x, -z'
 38 'y, x, z'
 39 'y, z, -x'
 40 'y, z, x'
 41 'z, -x, -y'
 42 'z, -x, y'
 43 'z, -y, -x'
 44 'z, -y, x'
 45 'z, x, -y'
 46 'z, x, y'
 47 'z, y, -x'
 48 'z, y, x'
 49 '1/2+x, 1/2+y, 1/2+z'
 50 '1/2-x, 1/2-y, 1/2-z'
 51 '1/2-x, 1/2-y, 1/2+z'
 52 '1/2-x, 1/2-z, 1/2-y'
 53 '1/2-x, 1/2-z, 1/2+y'
 54 '1/2-x, 1/2+y, 1/2-z'
 55 '1/2-x, 1/2+y, 1/2+z'
 56 '1/2-x, 1/2+z, 1/2-y'
 57 '1/2-x, 1/2+z, 1/2+y'
 58 '1/2-y, 1/2-x, 1/2-z'
 59 '1/2-y, 1/2-x, 1/2+z'
 60 '1/2-y, 1/2-z, 1/2-x'
 61 '1/2-y, 1/2-z, 1/2+x'
 62 '1/2-y, 1/2+x, 1/2-z'
 63 '1/2-y, 1/2+x, 1/2+z'
 64 '1/2-y, 1/2+z, 1/2-x'
 65 '1/2-y, 1/2+z, 1/2+x'
 66 '1/2-z, 1/2-x, 1/2-y'
 67 '1/2-z, 1/2-x, 1/2+y'
 68 '1/2-z, 1/2-y, 1/2-x'
 69 '1/2-z, 1/2-y, 1/2+x'
 70 '1/2-z, 1/2+x, 1/2-y'
 71 '1/2-z, 1/2+x, 1/2+y'
 72 '1/2-z, 1/2+y, 1/2-x'
 73 '1/2-z, 1/2+y, 1/2+x'
 74 '1/2+x, 1/2-y, 1/2-z'
 75 '1/2+x, 1/2-y, 1/2+z'
 76 '1/2+x, 1/2-z, 1/2-y'
 77 '1/2+x, 1/2-z, 1/2+y'
 78 '1/2+x, 1/2+y, 1/2-z'
 79 '1/2+x, 1/2+z, 1/2-y'
 80 '1/2+x, 1/2+z, 1/2+y'
 81 '1/2+y, 1/2-x, 1/2-z'
 82 '1/2+y, 1/2-x, 1/2+z'
 83 '1/2+y, 1/2-z, 1/2-x'
 84 '1/2+y, 1/2-z, 1/2+x'
 85 '1/2+y, 1/2+x, 1/2-z'
 86 '1/2+y, 1/2+x, 1/2+z'
 87 '1/2+y, 1/2+z, 1/2-x'
 88 '1/2+y, 1/2+z, 1/2+x'
 89 '1/2+z, 1/2-x, 1/2-y'
 90 '1/2+z, 1/2-x, 1/2+y'
 91 '1/2+z, 1/2-y, 1/2-x'
 92 '1/2+z, 1/2-y, 1/2+x'
 93 '1/2+z, 1/2+x, 1/2-y'
 94 '1/2+z, 1/2+x, 1/2+y'
 95 '1/2+z, 1/2+y, 1/2-x'
 96 '1/2+z, 1/2+y, 1/2+x'
loop_
 _atom_type_symbol
 Ge
 Ir
loop_
 _atom_site_label
 _atom_site_type_symbol
 _atom_site_symmetry_multiplicity
 _atom_site_Wyckoff_symbol
 _atom_site_fract_x
 _atom_site_fract_y
 _atom_site_fract_z
 _atom_site_occupancy
 Ge2 Ge 16 f 0.156 0.156 0.156 1
 Ir Ir 12 e 0.342 0 0 1
 Ge1 Ge 12 d 0.25 0 0.5 1


_exptl_crystal_colour                    ?
_exptl_crystal_density_meas              ?
_exptl_crystal_density_diffrn            10.81
_cell_measurement_temperature            ?
_cell_measurement_radiation              'X-rays, Cr Ka'
_cell_measurement_reflns_used            ?
_diffrn_ambient_temperature              ?
_diffrn_measurement_device               ?
_diffrn_measurement_device_type          ?
_diffrn_radiation_type                   ?
_diffrn_reflns_number                    ?
_exptl_absorpt_coefficient_mu            ?
_exptl_absorpt_correction_type           ?
_computing_structure_solution            ?
_refine_ls_number_parameters             ?
_refine_ls_number_reflns                 ?
_refine_ls_R_factor_gt                   ?
_refine_ls_wR_factor_gt                  ?

# Published diffraction lines

loop_
 _refln_index_h
 _refln_index_k
 _refln_index_l
 _refln_d_spacing
 _refln_intensity_meas
 2 0 0 4.31 4
 2 1 1 3.534 7
 2 2 2 2.523 5
 3 2 1 2.333 4
 4 0 0 2.18 3
 3 3 0 2.058 8
 4 2 0 1.949 2.5
 3 3 2 1.859 3
 4 2 2 1.778 5
 5 2 1 1.59 3.5
 4 4 0 1.546 2.5
 4 3 3 1.495 2
 6 0 0 1.455 5
 6 1 1 1.416 3.5
 6 2 0 1.381 1
 5 4 1 1.348 4.5
 6 2 2 1.318 2
 6 3 1 1.287 2.5
 4 4 4 1.263 2
 0 1 7 1.234 1
 6 4 0 1.212 2
 6 3 3 1.187 7
 6 5 1 1.108 2.5
 8 1 1 1.075 5
 8 2 0 1.059 2
 6 5 3 1.042 3.5
 8 2 2 1.028 4
 7 5 2 0.989 3
 8 4 0 0.976 2.5
 8 3 3 0.963 2.5
 8 4 2 0.952 3
 6 5 5 0.94 3
 9 3 0 0.919 5
 7 6 3 0.899 3
 8 6 0 0.872 2
 10 1 1 0.862 3
 6 6 6 0.837 4
 7 6 5 0.829 2
 8 7 1 0.814 5.5
 10 4 0 0.806 1
 10 3 3 0.8 2
 10 4 2 0.793 6

# End of data set 452323

