##############################################################################
#                                                                            #
# Pt-Si            # Pt12Si5 rt                                    #  452382 #
#                                                                            #
##############################################################################
#                                                                            #
#                           Pearson's Crystal Data                           #
#      Crystal Structure Database for Inorganic Compounds (on DVD)           #
#                              Release 2022/23                               #
#                  Editors: Pierre Villars and Karin Cenzual                 #
#                                                                            #
#   Copyright (c) ASM International & Material Phases Data System (MPDS),    #
# Switzerland & National Institute for Materials Science (NIMS), Japan, 2022 #
#                   All rights reserved. Version 2022.07                     #
#                                                                            #
#   This copy of Pearson's Crystal Data is licensed to:                      #
#   University of Alberta, Chemistry Department, 1-5 Installations License         #
#                                                                            #
##############################################################################

data_452382
_audit_creation_date                     2023-07-09
_audit_creation_method
;
Pearson's Crystal Data browser
;
#_database_code_PCD                      452382
_database_code_PDF                       04-003-1664

# Entry summary

_chemical_formula_structural             'Pt~12~ Si~5~'
_chemical_formula_sum                    'Pt12 Si5'
_chemical_name_mineral                   ?
_chemical_compound_source                ?
_chemical_name_structure_type            Ni~12~P~5~,tI34,87
_chemical_formula_weight                 2481.5

# Bibliographic data

_publ_section_title
'On the Constitution of Platinum-Silicon Alloys'                              
_journal_coden_ASTM                      ZEMTAE
_journal_name_full                       'Z. Metallkd.'
_journal_year                            1978
_journal_volume                          69
_journal_page_first                      524
_journal_page_last                       529
_journal_language                        English
loop_
 _publ_author_name
 _publ_author_address
'Ram R.P.'
;
Banaras Hindu University (Central Hindu College)
Department of Metallurgical Engineering
Varanasi / Uttar Pradesh
India
;
'Bhan S.'
;
Max Planck Society (MPG)
Max Planck Institut (MPI) fur Eisenforschung
Dusseldorf
Germany
;

# Standardized crystallographic data

_cell_length_a                           9.607
_cell_length_b                           9.607
_cell_length_c                           5.542
_cell_angle_alpha                        90
_cell_angle_beta                         90
_cell_angle_gamma                        90
_cell_volume                             511.5
_cell_formula_units_Z                    2
_space_group_IT_number                   87
_space_group_name_H-M_alt                'I 4/m'
loop_
 _space_group_symop_id
 _space_group_symop_operation_xyz
 1 'x, y, z'
 2 '-x, -y, -z'
 3 '-x, -y, z'
 4 '-y, x, -z'
 5 '-y, x, z'
 6 'x, y, -z'
 7 'y, -x, -z'
 8 'y, -x, z'
 9 '1/2+x, 1/2+y, 1/2+z'
 10 '1/2-x, 1/2-y, 1/2-z'
 11 '1/2-x, 1/2-y, 1/2+z'
 12 '1/2-y, 1/2+x, 1/2-z'
 13 '1/2-y, 1/2+x, 1/2+z'
 14 '1/2+x, 1/2+y, 1/2-z'
 15 '1/2+y, 1/2-x, 1/2-z'
 16 '1/2+y, 1/2-x, 1/2+z'
loop_
 _atom_type_symbol
 Pt
 Si
loop_
 _atom_site_label
 _atom_site_type_symbol
 _atom_site_symmetry_multiplicity
 _atom_site_Wyckoff_symbol
 _atom_site_fract_x
 _atom_site_fract_y
 _atom_site_fract_z
 _atom_site_occupancy
 Pt1 Pt 16 i 0.182 0.116 0.248 1
 Pt2 Pt 8 h 0.06 0.368 0 1
 Si2 Si 8 h 0.415 0.195 0 1
 Si1 Si 2 a 0 0 0 1


_exptl_crystal_colour                    ?
_exptl_crystal_density_meas              ?
_exptl_crystal_density_diffrn            16.11
_cell_measurement_temperature            1175(13)
_cell_measurement_radiation              'X-rays, Cr Ka'
_cell_measurement_reflns_used            ?
_diffrn_ambient_temperature              ?
_diffrn_measurement_device               'high-temperature camera'
_diffrn_measurement_device_type          ?
_diffrn_radiation_type                   ?
_diffrn_reflns_number                    ?
_exptl_absorpt_coefficient_mu            ?
_exptl_absorpt_correction_type           ?
_computing_structure_solution            ?
_refine_ls_number_parameters             ?
_refine_ls_number_reflns                 ?
_refine_ls_R_factor_gt                   ?
_refine_ls_wR_factor_gt                  ?

# Published diffraction lines

loop_
 _refln_index_h
 _refln_index_k
 _refln_index_l
 _refln_d_spacing
 _refln_intensity_meas
 1 1 2 2.562 7.5
 3 2 1 2.401 7
 3 3 0 2.266 7.5
 1 4 1 2.149 7
 1 3 2 2.048 7
 5 1 0 1.885 7
 3 4 1 1.816 7.5
 3 3 2 1.754 7.5
 4 2 2 1.699 5
 3 5 0 1.649 9
 6 0 0 1.602 9
 5 1 2 1.558 9
 6 1 1 1.52 7
 4 4 2 1.449 8
 3 5 2 1.417 4.5
 6 3 1 1.387 7.5
 1 7 0 1.36 5.5
 6 2 2 1.334 7.5
 2 6 2 1.333 7
 2 5 3 1.284 9
 3 7 0 1.263 7.5
 1 3 4 1.26 5
 5 5 2 1.221 7

# End of data set 452382

