##############################################################################
#                                                                            #
# Rh-Si            # Rh20Si13 ht                                   #  452657 #
#                                                                            #
##############################################################################
#                                                                            #
#                           Pearson's Crystal Data                           #
#      Crystal Structure Database for Inorganic Compounds (on DVD)           #
#                              Release 2022/23                               #
#                  Editors: Pierre Villars and Karin Cenzual                 #
#                                                                            #
#   Copyright (c) ASM International & Material Phases Data System (MPDS),    #
# Switzerland & National Institute for Materials Science (NIMS), Japan, 2022 #
#                   All rights reserved. Version 2022.07                     #
#                                                                            #
#   This copy of Pearson's Crystal Data is licensed to:                      #
#   University of Alberta, Chemistry Department, 1-5 Installations License         #
#                                                                            #
##############################################################################

data_452657
_audit_creation_date                     2023-07-09
_audit_creation_method
;
Pearson's Crystal Data browser
;
#_database_code_PCD                      452657
_database_code_PDF                       ?

# Entry summary

_chemical_formula_structural             'Rh~20~ Si~13~'
_chemical_formula_sum                    'Rh20 Si13'
_chemical_name_mineral                   ?
_chemical_compound_source                ?
_chemical_name_structure_type            Rh~20~Si~13~,hP34,176
_chemical_formula_weight                 2423.2

# Bibliographic data

_publ_section_title
;
The Crystal Structures of Rh~2~Si and Rh~5~Si~3~ with some Notes on the Rh-Si System
;
_journal_coden_ASTM                      ACSAA4
_journal_name_full                       'Acta Chem. Scand.'
_journal_year                            1963
_journal_volume                          17
_journal_page_first                      775
_journal_page_last                       784
_journal_language                        English
loop_
 _publ_author_name
 _publ_author_address
'Engstrom I.'
;
Uppsala University
Institute of Chemistry
Uppsala
Sweden
;

# Standardized crystallographic data

_cell_length_a                           11.851
_cell_length_b                           11.851
_cell_length_c                           3.623
_cell_angle_alpha                        90
_cell_angle_beta                         90
_cell_angle_gamma                        120
_cell_volume                             440.67
_cell_formula_units_Z                    1
_space_group_IT_number                   176
_space_group_name_H-M_alt                'P 63/m'
loop_
 _space_group_symop_id
 _space_group_symop_operation_xyz
 1 'x, y, z'
 2 '-x+y, -x, 1/2-z'
 3 '-x+y, -x, z'
 4 '-x, -y, -z'
 5 '-x, -y, 1/2+z'
 6 '-y, x-y, 1/2-z'
 7 '-y, x-y, z'
 8 'x, y, 1/2-z'
 9 'x-y, x, -z'
 10 'x-y, x, 1/2+z'
 11 'y, -x+y, -z'
 12 'y, -x+y, 1/2+z'

# Atomic positions taken from type-defining entry

loop_
 _atom_type_symbol
 Rh
 Si
loop_
 _atom_site_label
 _atom_site_type_symbol
 _atom_site_symmetry_multiplicity
 _atom_site_Wyckoff_symbol
 _atom_site_fract_x
 _atom_site_fract_y
 _atom_site_fract_z
 _atom_site_occupancy
 Rh1 Rh 6 h 0.0033 0.1876 0.25 1
 Rh2 Rh 6 h 0.0713 0.4613 0.25 1
 Rh3 Rh 6 h 0.2725 0.4008 0.25 1
 Si1 Si 6 h 0.3391 0.2333 0.25 1
 Si2 Si 6 h 0.5497 0.1678 0.25 1
 Rh4 Rh 2 c 0.333333 0.666667 0.25 1
 Si3 Si 2 b 0 0 0 0.500


_exptl_crystal_colour                    ?
_exptl_crystal_density_meas              ?
_exptl_crystal_density_diffrn            9.13
_cell_measurement_temperature            ?
_cell_measurement_radiation              'X-rays, Cu Ka'
_cell_measurement_reflns_used            ?
_diffrn_ambient_temperature              ?
_diffrn_measurement_device               'Guinier film'
_diffrn_measurement_device_type          ?
_diffrn_radiation_type                   ?
_diffrn_reflns_number                    ?
_exptl_absorpt_coefficient_mu            ?
_exptl_absorpt_correction_type           ?
_computing_structure_solution            ?
_refine_ls_number_parameters             ?
_refine_ls_number_reflns                 ?
_refine_ls_R_factor_gt                   ?
_refine_ls_wR_factor_gt                  ?

# Published diffraction lines

loop_
 _refln_index_h
 _refln_index_k
 _refln_index_l
 _refln_d_spacing
 _refln_intensity_meas
 1 1 0 5.608 2.5
 2 1 0 3.884 2.5
 3 0 0 3.42 7
 1 1 1 3.089 3
 2 2 0 2.961 2.5
 3 1 0 2.849 3.5
 2 1 1 2.649 3.5
 4 0 0 2.57 3
 3 2 0 2.356 3.5
 2 2 1 2.294 5.5
 4 1 0 2.239 7.5
 4 0 1 2.096 5.5
 5 0 0 2.055 3
 3 3 0 1.976 5
 4 1 1 1.907 2.5
 5 1 0 1.844 3.5
 0 0 2 1.81 5
 5 0 1 1.788 2.5
 3 3 1 1.735 2.5
 5 1 1 1.644 3
 6 1 0 1.568 2.5
 4 3 1 1.529 3
 4 4 0 1.483 2.5
 7 0 0 1.467 2.5
 6 1 1 1.435 2.5
 6 2 0 1.423 2.5
 4 1 2 1.408 5.5

# End of data set 452657

