##############################################################################
#                                                                            #
# Rh-Si            # RhSi ht                                       #  452677 #
#                                                                            #
##############################################################################
#                                                                            #
#                           Pearson's Crystal Data                           #
#      Crystal Structure Database for Inorganic Compounds (on DVD)           #
#                              Release 2022/23                               #
#                  Editors: Pierre Villars and Karin Cenzual                 #
#                                                                            #
#   Copyright (c) ASM International & Material Phases Data System (MPDS),    #
# Switzerland & National Institute for Materials Science (NIMS), Japan, 2022 #
#                   All rights reserved. Version 2022.07                     #
#                                                                            #
#   This copy of Pearson's Crystal Data is licensed to:                      #
#   University of Alberta, Chemistry Department, 1-5 Installations License         #
#                                                                            #
##############################################################################

data_452677
_audit_creation_date                     2023-07-09
_audit_creation_method
;
Pearson's Crystal Data browser
;
#_database_code_PCD                      452677
_database_code_PDF                       04-003-1894

# Entry summary

_chemical_formula_structural             'Rh Si'
_chemical_formula_sum                    'Rh Si'
_chemical_name_mineral                   ?
_chemical_compound_source                ?
_chemical_name_structure_type            FeSi,cP8,198
_chemical_formula_weight                 131.0

# Bibliographic data

_publ_section_title
'Least-squares Refinement of the Structure of RhSi (FeSi-type)'               
_journal_coden_ASTM                      ACSAA4
_journal_name_full                       'Acta Chem. Scand.'
_journal_year                            1965
_journal_volume                          19
_journal_page_first                      1508
_journal_page_last                       1509
_journal_language                        English
loop_
 _publ_author_name
 _publ_author_address
'Engstrom I.'
;
Uppsala University
Institute of Chemistry
Uppsala
Sweden
;
'Johnsson T.'
;
Uppsala University
Institute of Chemistry
Uppsala
Sweden
;

# Standardized crystallographic data

_cell_length_a                           4.674
_cell_length_b                           4.674
_cell_length_c                           4.674
_cell_angle_alpha                        90
_cell_angle_beta                         90
_cell_angle_gamma                        90
_cell_volume                             102.11
_cell_formula_units_Z                    4
_space_group_IT_number                   198
_space_group_name_H-M_alt                'P 21 3'
loop_
 _space_group_symop_id
 _space_group_symop_operation_xyz
 1 'x, y, z'
 2 '1/2-x, -y, 1/2+z'
 3 '-x, 1/2+y, 1/2-z'
 4 '1/2-y, -z, 1/2+x'
 5 '-y, 1/2+z, 1/2-x'
 6 '1/2-z, -x, 1/2+y'
 7 '-z, 1/2+x, 1/2-y'
 8 '1/2+x, 1/2-y, -z'
 9 '1/2+y, 1/2-z, -x'
 10 'y, z, x'
 11 '1/2+z, 1/2-x, -y'
 12 'z, x, y'
loop_
 _atom_type_symbol
 Si
 Rh
loop_
 _atom_site_label
 _atom_site_type_symbol
 _atom_site_symmetry_multiplicity
 _atom_site_Wyckoff_symbol
 _atom_site_fract_x
 _atom_site_fract_y
 _atom_site_fract_z
 _atom_site_occupancy
 Si Si 4 a 0.0903 0.0903 0.0903 1
 Rh Rh 4 a 0.3959 0.3959 0.3959 1


_exptl_crystal_colour                    ?
_exptl_crystal_density_meas              ?
_exptl_crystal_density_diffrn            8.52
_cell_measurement_temperature            ?
_cell_measurement_radiation              'X-rays, Cu Ka1'
_cell_measurement_reflns_used            ?
_diffrn_ambient_temperature              ?
_diffrn_measurement_device               'Weissenberg photographs'
_diffrn_measurement_device_type          ?
_diffrn_radiation_type                   'X-rays, Mo K'
_diffrn_reflns_number                    ?
_exptl_absorpt_coefficient_mu            ?
_exptl_absorpt_correction_type           ?
_computing_structure_solution            'starting values from the literature'
_refine_ls_number_parameters             ?
_refine_ls_number_reflns                 ?
_refine_ls_R_factor_gt                   0.099
_refine_ls_wR_factor_gt                  ?

# End of data set 452677

