##############################################################################
#                                                                            #
# Ga-Rh            # Rh2Ga9                                        #  452811 #
#                                                                            #
##############################################################################
#                                                                            #
#                           Pearson's Crystal Data                           #
#      Crystal Structure Database for Inorganic Compounds (on DVD)           #
#                              Release 2022/23                               #
#                  Editors: Pierre Villars and Karin Cenzual                 #
#                                                                            #
#   Copyright (c) ASM International & Material Phases Data System (MPDS),    #
# Switzerland & National Institute for Materials Science (NIMS), Japan, 2022 #
#                   All rights reserved. Version 2022.07                     #
#                                                                            #
#   This copy of Pearson's Crystal Data is licensed to:                      #
#   University of Alberta, Chemistry Department, 1-5 Installations License         #
#                                                                            #
##############################################################################

data_452811
_audit_creation_date                     2023-07-09
_audit_creation_method
;
Pearson's Crystal Data browser
;
#_database_code_PCD                      452811
_database_code_PDF                       04-003-2010

# Entry summary

_chemical_formula_structural             'Rh~2~ Ga~9~'
_chemical_formula_sum                    'Ga9 Rh2'
_chemical_name_mineral                   ?
_chemical_compound_source                ?
_chemical_name_structure_type            Co~2~Al~9~,mP22,14
_chemical_formula_weight                 833.3

# Bibliographic data

_publ_section_title
'The Crystal Structure of Rh~2~Ga~9~ and Ir~2~Ga~9~'                          
_journal_coden_ASTM                      ACSAA4
_journal_name_full                       'Acta Chem. Scand.'
_journal_year                            1970
_journal_volume                          24
_journal_page_first                      1457
_journal_page_last                       1458
_journal_language                        English
loop_
 _publ_author_name
 _publ_author_address
'Edshammar L.E.'
;
Stockholm University
Institute of Inorganic and Physical Chemistry
Stockholm
Sweden
;

# Standardized crystallographic data

_cell_length_a                           6.448
_cell_length_b                           6.405
_cell_length_c                           8.829
_cell_angle_alpha                        90
_cell_angle_beta                         96.85
_cell_angle_gamma                        90
_cell_volume                             362.03
_cell_formula_units_Z                    2
_space_group_IT_number                   14
_space_group_name_H-M_alt                'P 1 21/c 1'
loop_
 _space_group_symop_id
 _space_group_symop_operation_xyz
 1 'x, y, z'
 2 '-x, -y, -z'
 3 '-x, 1/2+y, 1/2-z'
 4 'x, 1/2-y, 1/2+z'

# Atomic positions taken from type-defining entry

loop_
 _atom_type_symbol
 Ga
 Rh
loop_
 _atom_site_label
 _atom_site_type_symbol
 _atom_site_symmetry_multiplicity
 _atom_site_Wyckoff_symbol
 _atom_site_fract_x
 _atom_site_fract_y
 _atom_site_fract_z
 _atom_site_occupancy
 Ga1 Ga 4 e 0.0889 0.7101 0.2309 1
 Ga2 Ga 4 e 0.2159 0.3852 0.0417 1
 Rh1 Rh 4 e 0.2646 0.3851 0.3335 1
 Ga3 Ga 4 e 0.4044 0.0381 0.2682 1
 Ga4 Ga 4 e 0.6109 0.1931 0.0014 1
 Ga5 Ga 2 a 0 0 0 1


_exptl_crystal_colour                    gray
_exptl_crystal_density_meas              ?
_exptl_crystal_density_diffrn            7.64
_cell_measurement_temperature            ?
_cell_measurement_radiation              'X-rays, Cu Ka1'
_cell_measurement_wavelength             1.5405
_pd_proc_wavelength                      1.5405
_cell_measurement_reflns_used            ?
_diffrn_ambient_temperature              ?
_diffrn_measurement_device               'Guinier-Haegg film'
_diffrn_measurement_device_type          ?
_diffrn_radiation_type                   ?
_diffrn_reflns_number                    ?
_exptl_absorpt_coefficient_mu            ?
_exptl_absorpt_correction_type           ?
_computing_structure_solution            ?
_refine_ls_number_parameters             ?
_refine_ls_number_reflns                 ?
_refine_ls_R_factor_gt                   ?
_refine_ls_wR_factor_gt                  ?

# Published diffraction lines

loop_
 _refln_index_h
 _refln_index_k
 _refln_index_l
 _refln_d_spacing
 _refln_intensity_meas
 0 1 1 5.179 5
 1 1 0 4.533 5.5
 0 0 2 4.375 1
 -1 1 1 4.092 3
 1 1 1 3.953 3.5
 -1 0 2 3.72 3
 0 1 2 3.617 5
 1 0 2 3.519 2
 2 0 0 3.201 2
 0 2 1 3.008 5
 1 2 0 2.864 2
 -2 1 1 2.765 1
 -1 2 1 2.745 3
 2 1 1 2.681 7
 -2 0 2 2.659 5
 0 2 2 2.586 1
 2 0 2 2.515 2
 -1 1 3 2.503 2
 -2 1 2 2.458 5.5
 -1 2 2 2.427 7
 1 1 3 2.412 1
 1 2 2 2.369 7
 2 1 2 2.341 7
 -2 2 1 2.215 5
 0 0 4 2.191 5

# End of data set 452811

