##############################################################################
#                                                                            #
# Co-Sn            # Co3Sn2 rt                                     #  453337 #
#                                                                            #
##############################################################################
#                                                                            #
#                           Pearson's Crystal Data                           #
#      Crystal Structure Database for Inorganic Compounds (on DVD)           #
#                              Release 2022/23                               #
#                  Editors: Pierre Villars and Karin Cenzual                 #
#                                                                            #
#   Copyright (c) ASM International & Material Phases Data System (MPDS),    #
# Switzerland & National Institute for Materials Science (NIMS), Japan, 2022 #
#                   All rights reserved. Version 2022.07                     #
#                                                                            #
#   This copy of Pearson's Crystal Data is licensed to:                      #
#   University of Alberta, Chemistry Department, 1-5 Installations License         #
#                                                                            #
##############################################################################

data_453337
_audit_creation_date                     2023-07-09
_audit_creation_method
;
Pearson's Crystal Data browser
;
#_database_code_PCD                      453337
_database_code_PDF                       ?

# Entry summary

_chemical_formula_structural             'Co~3~ Sn~2~'
_chemical_formula_sum                    'Co3 Sn2'
_chemical_name_mineral                   ?
_chemical_compound_source                ?
_chemical_name_structure_type            Ni~3~Sn~2~,oP20,62
_chemical_formula_weight                 414.2

# Bibliographic data

_publ_section_title
'Crystal symmetry and cell parameters of the ordered phase of Co~3~Sn~2~'     
_journal_coden_ASTM                      IJOPAU
_journal_name_full                       'Indian J. Pure Appl. Phys.'
_journal_year                            1970
_journal_volume                          8
_journal_page_first                      363
_journal_page_last                       364
_journal_language                        English
loop_
 _publ_author_name
 _publ_author_address
'Rajeswari H.'
;
Indian Institute of Science (IISc)
Department of Inorganic and Physical Chemistry
Bangalore / Karnataka
India
;
'Manohar H.'
;
Indian Institute of Science (IISc)
Department of Inorganic and Physical Chemistry
Bangalore / Karnataka
India
;

# Standardized crystallographic data

_cell_length_a                           7.145
_cell_length_b                           5.25
_cell_length_c                           8.173
_cell_angle_alpha                        90
_cell_angle_beta                         90
_cell_angle_gamma                        90
_cell_volume                             306.58
_cell_formula_units_Z                    4
_space_group_IT_number                   62
_space_group_name_H-M_alt                'P n m a'
loop_
 _space_group_symop_id
 _space_group_symop_operation_xyz
 1 'x, y, z'
 2 '1/2-x, -y, 1/2+z'
 3 '1/2-x, 1/2+y, 1/2+z'
 4 '-x, -y, -z'
 5 '-x, 1/2+y, -z'
 6 '1/2+x, 1/2-y, 1/2-z'
 7 '1/2+x, y, 1/2-z'
 8 'x, 1/2-y, z'

# Atomic positions taken from type-defining entry

loop_
 _atom_type_symbol
 Co
 Sn
loop_
 _atom_site_label
 _atom_site_type_symbol
 _atom_site_symmetry_multiplicity
 _atom_site_Wyckoff_symbol
 _atom_site_fract_x
 _atom_site_fract_y
 _atom_site_fract_z
 _atom_site_occupancy
 Co1 Co 8 d 0.2353 0.0040 0.3824 1
 Sn1 Sn 4 c 0.0657 0.25 0.0942 1
 Sn2 Sn 4 c 0.1022 0.25 0.6417 1
 Co2 Co 4 c 0.4077 0.25 0.1284 1


_exptl_crystal_colour                    ?
_exptl_crystal_density_meas              8.91
_exptl_crystal_density_diffrn            8.97
_cell_measurement_temperature            ?
_cell_measurement_radiation              X-rays
_cell_measurement_reflns_used            ?
_diffrn_ambient_temperature              ?
_diffrn_measurement_device               'Weissenberg photographs'
_diffrn_measurement_device_type          ?
_diffrn_radiation_type                   ?
_diffrn_reflns_number                    ?
_exptl_absorpt_coefficient_mu            ?
_exptl_absorpt_correction_type           ?
_computing_structure_solution            ?
_refine_ls_number_parameters             ?
_refine_ls_number_reflns                 ?
_refine_ls_R_factor_gt                   ?
_refine_ls_wR_factor_gt                  ?

# End of data set 453337

