##############################################################################
#                                                                            #
# Ni-Sn            # Ni0.75Sn0.25 ht                               #  453315 #
#                                                                            #
##############################################################################
#                                                                            #
#                           Pearson's Crystal Data                           #
#      Crystal Structure Database for Inorganic Compounds (on DVD)           #
#                              Release 2022/23                               #
#                  Editors: Pierre Villars and Karin Cenzual                 #
#                                                                            #
#   Copyright (c) ASM International & Material Phases Data System (MPDS),    #
# Switzerland & National Institute for Materials Science (NIMS), Japan, 2022 #
#                   All rights reserved. Version 2022.07                     #
#                                                                            #
#   This copy of Pearson's Crystal Data is licensed to:                      #
#   University of Alberta, Chemistry Department, 1-5 Installations License         #
#                                                                            #
##############################################################################

data_453315
_audit_creation_date                     2023-07-09
_audit_creation_method
;
Pearson's Crystal Data browser
;
#_database_code_PCD                      453315
_database_code_PDF                       04-003-2431

# Entry summary

_chemical_formula_structural             'Ni~3~ Sn'
_chemical_formula_sum                    'Ni3 Sn'
_chemical_name_mineral                   ?
_chemical_compound_source                ?
_chemical_name_structure_type            Cu~3~Ti,oP8,59
_chemical_formula_weight                 294.8

# Bibliographic data

_publ_section_title
'Structural studies on Ni-Sn-In ternary system'                               
_journal_coden_ASTM                      IJOTA8
_journal_name_full                       'Indian J. Technol.'
_journal_year                            1986
_journal_volume                          24
_journal_page_first                      105
_journal_page_last                       107
_journal_language                        English
loop_
 _publ_author_name
 _publ_author_address
'Shadangi S.K.'
;
Banaras Hindu University (Central Hindu College)
Department of Metallurgical Engineering
Varanasi / Uttar Pradesh
India
;
'Singh M.'
;
Banaras Hindu University (Central Hindu College)
Department of Metallurgical Engineering
Varanasi / Uttar Pradesh
India
;
'Panda S.C.'
;
Government College of Engineering and Technology (CET)
Department of Physics
Raipur / Chhattisgarh
India
;
'Bhan S.'
;
Banaras Hindu University (Central Hindu College)
Department of Metallurgical Engineering
Varanasi / Uttar Pradesh
India
;

# Standardized crystallographic data

_cell_length_a                           4.6
_cell_length_b                           5.275
_cell_length_c                           4.254
_cell_angle_alpha                        90
_cell_angle_beta                         90
_cell_angle_gamma                        90
_cell_volume                             103.22
_cell_formula_units_Z                    2
_space_group_IT_number                   59
_space_group_name_H-M_alt                'P m m n (origin choice 2)'
loop_
 _space_group_symop_id
 _space_group_symop_operation_xyz
 1 'x, y, z'
 2 '1/2-x, 1/2-y, z'
 3 '1/2-x, y, z'
 4 '-x, -y, -z'
 5 '-x, 1/2+y, -z'
 6 '1/2+x, -y, -z'
 7 '1/2+x, 1/2+y, -z'
 8 'x, 1/2-y, z'

# Atomic positions taken from type-defining entry

loop_
 _atom_type_symbol
 Ni
 Sn
loop_
 _atom_site_label
 _atom_site_type_symbol
 _atom_site_symmetry_multiplicity
 _atom_site_Wyckoff_symbol
 _atom_site_fract_x
 _atom_site_fract_y
 _atom_site_fract_z
 _atom_site_occupancy
 Ni1 Ni 4 e 0.25 0.000 0.655 1
 Sn1 Sn 2 b 0.25 0.75 0.155 1
 Ni2 Ni 2 a 0.25 0.25 0.155 1


_exptl_crystal_colour                    ?
_exptl_crystal_density_meas              ?
_exptl_crystal_density_diffrn            9.48
_cell_measurement_temperature            ?
_cell_measurement_radiation              'X-rays, Cu Ka1'
_cell_measurement_reflns_used            ?
_diffrn_ambient_temperature              ?
_diffrn_measurement_device               'Guinier film'
_diffrn_measurement_device_type          ?
_diffrn_radiation_type                   ?
_diffrn_reflns_number                    ?
_exptl_absorpt_coefficient_mu            ?
_exptl_absorpt_correction_type           ?
_computing_structure_solution            ?
_refine_ls_number_parameters             ?
_refine_ls_number_reflns                 ?
_refine_ls_R_factor_gt                   ?
_refine_ls_wR_factor_gt                  ?

# Published diffraction lines

loop_
 _refln_index_h
 _refln_index_k
 _refln_index_l
 _refln_d_spacing
 _refln_intensity_meas
 0 1 0 4.607 3
 0 0 1 4.318 0.5
 1 1 0 3.467 3.5
 1 0 1 3.317 4.5
 0 1 1 3.129 7
 2 0 0 2.645 3.5
 0 2 0 2.298 7
 2 0 1 2.236 3
 0 0 2 2.125 8
 0 2 1 2.021 9
 2 1 1 2.007 3
 3 0 0 1.758 0.5
 2 0 2 1.659 2.5
 2 2 1 1.599 2.5
 2 1 2 1.558 5
 2 3 0 1.324 5.5
 1 1 3 1.312 2.5
 2 1 3 1.204 5

# End of data set 453315

