##############################################################################
#                                                                            #
# Os-Si            # OsSi rt                                       #  456001 #
#                                                                            #
##############################################################################
#                                                                            #
#                           Pearson's Crystal Data                           #
#      Crystal Structure Database for Inorganic Compounds (on DVD)           #
#                              Release 2022/23                               #
#                  Editors: Pierre Villars and Karin Cenzual                 #
#                                                                            #
#   Copyright (c) ASM International & Material Phases Data System (MPDS),    #
# Switzerland & National Institute for Materials Science (NIMS), Japan, 2022 #
#                   All rights reserved. Version 2022.07                     #
#                                                                            #
#   This copy of Pearson's Crystal Data is licensed to:                      #
#   University of Alberta, Chemistry Department, 1-5 Installations License         #
#                                                                            #
##############################################################################

data_456001
_audit_creation_date                     2023-07-09
_audit_creation_method
;
Pearson's Crystal Data browser
;
#_database_code_PCD                      456001
_database_code_PDF                       04-003-4793

# Entry summary

_chemical_formula_structural             'Os Si'
_chemical_formula_sum                    'Os Si'
_chemical_name_mineral                   ?
_chemical_compound_source                ?
_chemical_name_structure_type            FeSi,cP8,198
_chemical_formula_weight                 218.3

# Bibliographic data

_publ_section_title
'The crystal structures of the monosilicides of osmium, iridium and ruthenium'
_journal_coden_ASTM                      JPCHAX
_journal_name_full                       'J. Phys. Chem.'
_journal_year                            1957
_journal_volume                          61
_journal_page_first                      1541
_journal_page_last                       1543
_journal_language                        English
loop_
 _publ_author_name
 _publ_author_address
'Korst W.L.'
;
University of California UC Berkeley
Department of Mineral Technology
Berkeley
U.S.A. California
;
'Finnie L.N.'
;
University of California UC Berkeley
Department of Mineral Technology
Berkeley
U.S.A. California
;
'Searcy A.W.'
;
University of California UC Berkeley
Department of Mineral Technology
Berkeley
U.S.A. California
;

# Standardized crystallographic data

_cell_length_a                           4.729
_cell_length_b                           4.729
_cell_length_c                           4.729
_cell_angle_alpha                        90
_cell_angle_beta                         90
_cell_angle_gamma                        90
_cell_volume                             105.76
_cell_formula_units_Z                    4
_space_group_IT_number                   198
_space_group_name_H-M_alt                'P 21 3'
loop_
 _space_group_symop_id
 _space_group_symop_operation_xyz
 1 'x, y, z'
 2 '1/2-x, -y, 1/2+z'
 3 '-x, 1/2+y, 1/2-z'
 4 '1/2-y, -z, 1/2+x'
 5 '-y, 1/2+z, 1/2-x'
 6 '1/2-z, -x, 1/2+y'
 7 '-z, 1/2+x, 1/2-y'
 8 '1/2+x, 1/2-y, -z'
 9 '1/2+y, 1/2-z, -x'
 10 'y, z, x'
 11 '1/2+z, 1/2-x, -y'
 12 'z, x, y'
loop_
 _atom_type_symbol
 Os
 Si
loop_
 _atom_site_label
 _atom_site_type_symbol
 _atom_site_symmetry_multiplicity
 _atom_site_Wyckoff_symbol
 _atom_site_fract_x
 _atom_site_fract_y
 _atom_site_fract_z
 _atom_site_occupancy
 Os Os 4 a 0.09 0.09 0.09 1
 Si Si 4 a 0.39 0.39 0.39 1


_exptl_crystal_colour                    ?
_exptl_crystal_density_meas              ?
_exptl_crystal_density_diffrn            13.71
_cell_measurement_temperature            ?
_cell_measurement_radiation              'X-rays, Cu Ka1'
_cell_measurement_wavelength             1.5418
_pd_proc_wavelength                      1.5418
_cell_measurement_reflns_used            ?
_diffrn_ambient_temperature              ?
_diffrn_measurement_device               'Straumanis film'
_diffrn_measurement_device_type          ?
_diffrn_radiation_type                   'X-rays, Cu Ka1'
_diffrn_radiation_wavelength             1.5418
_diffrn_reflns_number                    ?
_exptl_absorpt_coefficient_mu            ?
_exptl_absorpt_correction_type           ?
_computing_structure_solution            'starting values from the literature'
_refine_ls_number_parameters             ?
_refine_ls_number_reflns                 ?
_refine_ls_R_factor_gt                   ?
_refine_ls_wR_factor_gt                  ?
_pd_proc_ls_proof_R_factor               ?
_pd_proc_ls_proof_wR_factor              ?
_refine_ls_R_I_factor                    ?

# Published diffraction lines

loop_
 _refln_index_h
 _refln_index_k
 _refln_index_l
 _refln_d_spacing
 _refln_intensity_meas
 1 1 0 3.343 7
 1 1 1 2.725 5
 2 0 0 2.359 2
 2 1 0 2.115 8
 2 1 1 1.929 7
 2 2 0 1.679 1
 2 2 1 1.593 1
 3 1 0 1.495 3.5
 3 1 1 1.425 4.5
 2 2 2 1.365 4.5
 3 2 0 1.311 4.5
 3 2 1 1.263 5
 4 0 0 1.182 3
 3 3 0 1.113 3
 3 3 1 1.084 3
 4 2 1 1.032 4.5
 3 3 2 1.008 3.5
 4 3 1 0.927 3.5
 3 3 3 0.91 3
 4 3 2 0.878 4.5
 5 2 1 0.864 3
 4 4 0 0.836 3
 4 3 3 0.811 3
 5 3 1 0.799 3
 6 1 0 0.777 3.5

# End of data set 456001

