##############################################################################
#                                                                            #
# Ir-Si            # IrSi                                          #  456003 #
#                                                                            #
##############################################################################
#                                                                            #
#                           Pearson's Crystal Data                           #
#      Crystal Structure Database for Inorganic Compounds (on DVD)           #
#                              Release 2022/23                               #
#                  Editors: Pierre Villars and Karin Cenzual                 #
#                                                                            #
#   Copyright (c) ASM International & Material Phases Data System (MPDS),    #
# Switzerland & National Institute for Materials Science (NIMS), Japan, 2022 #
#                   All rights reserved. Version 2022.07                     #
#                                                                            #
#   This copy of Pearson's Crystal Data is licensed to:                      #
#   University of Alberta, Chemistry Department, 1-5 Installations License         #
#                                                                            #
##############################################################################

data_456003
_audit_creation_date                     2023-07-09
_audit_creation_method
;
Pearson's Crystal Data browser
;
#_database_code_PCD                      456003
_database_code_PDF                       04-003-4795

# Entry summary

_chemical_formula_structural             'Ir Si'
_chemical_formula_sum                    'Ir Si'
_chemical_name_mineral                   ?
_chemical_compound_source                ?
_chemical_name_structure_type            FeAs,oP8,62
_chemical_formula_weight                 220.3

# Bibliographic data

_publ_section_title
'The crystal structures of the monosilicides of osmium, iridium and ruthenium'
_journal_coden_ASTM                      JPCHAX
_journal_name_full                       'J. Phys. Chem.'
_journal_year                            1957
_journal_volume                          61
_journal_page_first                      1541
_journal_page_last                       1543
_journal_language                        English
loop_
 _publ_author_name
 _publ_author_address
'Korst W.L.'
;
University of California UC Berkeley
Department of Mineral Technology
Berkeley
U.S.A. California
;
'Finnie L.N.'
;
University of California UC Berkeley
Department of Mineral Technology
Berkeley
U.S.A. California
;
'Searcy A.W.'
;
University of California UC Berkeley
Department of Mineral Technology
Berkeley
U.S.A. California
;

# Standardized crystallographic data

_cell_length_a                           5.558
_cell_length_b                           3.211
_cell_length_c                           6.273
_cell_angle_alpha                        90
_cell_angle_beta                         90
_cell_angle_gamma                        90
_cell_volume                             111.95
_cell_formula_units_Z                    4
_space_group_IT_number                   62
_space_group_name_H-M_alt                'P n m a'
loop_
 _space_group_symop_id
 _space_group_symop_operation_xyz
 1 'x, y, z'
 2 '1/2-x, -y, 1/2+z'
 3 '1/2-x, 1/2+y, 1/2+z'
 4 '-x, -y, -z'
 5 '-x, 1/2+y, -z'
 6 '1/2+x, 1/2-y, 1/2-z'
 7 '1/2+x, y, 1/2-z'
 8 'x, 1/2-y, z'
loop_
 _atom_type_symbol
 Ir
 Si
loop_
 _atom_site_label
 _atom_site_type_symbol
 _atom_site_symmetry_multiplicity
 _atom_site_Wyckoff_symbol
 _atom_site_fract_x
 _atom_site_fract_y
 _atom_site_fract_z
 _atom_site_occupancy
 Ir Ir 4 c 0.005 0.25 0.2 1
 Si Si 4 c 0.19 0.25 0.57 1


_exptl_crystal_colour                    ?
_exptl_crystal_density_meas              ?
_exptl_crystal_density_diffrn            13.07
_cell_measurement_temperature            ?
_cell_measurement_radiation              'X-rays, Cu Ka1'
_cell_measurement_wavelength             1.5418
_pd_proc_wavelength                      1.5418
_cell_measurement_reflns_used            ?
_diffrn_ambient_temperature              ?
_diffrn_measurement_device               'Straumanis film'
_diffrn_measurement_device_type          ?
_diffrn_radiation_type                   'X-rays, Cu Ka1'
_diffrn_radiation_wavelength             1.5418
_diffrn_reflns_number                    ?
_exptl_absorpt_coefficient_mu            ?
_exptl_absorpt_correction_type           ?
_computing_structure_solution            'starting values from the literature'
_refine_ls_number_parameters             ?
_refine_ls_number_reflns                 ?
_refine_ls_R_factor_gt                   ?
_refine_ls_wR_factor_gt                  ?
_pd_proc_ls_proof_R_factor               ?
_pd_proc_ls_proof_wR_factor              ?
_refine_ls_R_I_factor                    ?

# Published diffraction lines

loop_
 _refln_index_h
 _refln_index_k
 _refln_index_l
 _refln_d_spacing
 _refln_intensity_meas
 1 0 1 4.147 4.5
 0 0 2 3.129 5.5
 0 1 1 2.867 9
 2 0 0 2.774 7
 1 1 1 2.545 2
 1 1 2 2.077 8
 2 1 1 1.992 9
 1 0 3 1.955 4.5
 3 0 1 1.775 3
 0 1 3 1.75 3.5
 0 2 0 1.609 3
 0 0 4 1.566 1
 1 2 1 1.505 1
 2 1 3 1.48 3
 0 2 2 1.429 3.5
 2 2 0 1.387 5
 1 1 4 1.364 4.5
 2 2 2 1.271 4.5
 4 1 1 1.249 5
 1 2 3 1.244 3.5
 1 0 5 1.223 3
 3 2 1 1.19 1
 3 1 4 1.12 4.5
 4 1 3 1.087 2
 0 3 1 1.05 3.5
 3 0 5 1.038 3
 1 3 2 0.996 4.5

# End of data set 456003

