##############################################################################
#                                                                            #
# Ru-Si            # RuSi Ru+                                      #  456002 #
#                                                                            #
##############################################################################
#                                                                            #
#                           Pearson's Crystal Data                           #
#      Crystal Structure Database for Inorganic Compounds (on DVD)           #
#                              Release 2022/23                               #
#                  Editors: Pierre Villars and Karin Cenzual                 #
#                                                                            #
#   Copyright (c) ASM International & Material Phases Data System (MPDS),    #
# Switzerland & National Institute for Materials Science (NIMS), Japan, 2022 #
#                   All rights reserved. Version 2022.07                     #
#                                                                            #
#   This copy of Pearson's Crystal Data is licensed to:                      #
#   University of Alberta, Chemistry Department, 1-5 Installations License         #
#                                                                            #
##############################################################################

data_456002
_audit_creation_date                     2023-07-09
_audit_creation_method
;
Pearson's Crystal Data browser
;
#_database_code_PCD                      456002
_database_code_PDF                       04-003-4794

# Entry summary

_chemical_formula_structural             'Ru Si'
_chemical_formula_sum                    'Ru Si'
_chemical_name_mineral                   ?
_chemical_compound_source                ?
_chemical_name_structure_type            CsCl,cP2,221
_chemical_formula_weight                 129.2

# Bibliographic data

_publ_section_title
'The crystal structures of the monosilicides of osmium, iridium and ruthenium'
_journal_coden_ASTM                      JPCHAX
_journal_name_full                       'J. Phys. Chem.'
_journal_year                            1957
_journal_volume                          61
_journal_page_first                      1541
_journal_page_last                       1543
_journal_language                        English
loop_
 _publ_author_name
 _publ_author_address
'Korst W.L.'
;
University of California UC Berkeley
Department of Mineral Technology
Berkeley
U.S.A. California
;
'Finnie L.N.'
;
University of California UC Berkeley
Department of Mineral Technology
Berkeley
U.S.A. California
;
'Searcy A.W.'
;
University of California UC Berkeley
Department of Mineral Technology
Berkeley
U.S.A. California
;

# Standardized crystallographic data

_cell_length_a                           2.909
_cell_length_b                           2.909
_cell_length_c                           2.909
_cell_angle_alpha                        90
_cell_angle_beta                         90
_cell_angle_gamma                        90
_cell_volume                             24.62
_cell_formula_units_Z                    1
_space_group_IT_number                   221
_space_group_name_H-M_alt                'P m -3 m'
loop_
 _space_group_symop_id
 _space_group_symop_operation_xyz
 1 'x, y, z'
 2 '-x, -y, -z'
 3 '-x, -y, z'
 4 '-x, -z, -y'
 5 '-x, -z, y'
 6 '-x, y, -z'
 7 '-x, y, z'
 8 '-x, z, -y'
 9 '-x, z, y'
 10 '-y, -x, -z'
 11 '-y, -x, z'
 12 '-y, -z, -x'
 13 '-y, -z, x'
 14 '-y, x, -z'
 15 '-y, x, z'
 16 '-y, z, -x'
 17 '-y, z, x'
 18 '-z, -x, -y'
 19 '-z, -x, y'
 20 '-z, -y, -x'
 21 '-z, -y, x'
 22 '-z, x, -y'
 23 '-z, x, y'
 24 '-z, y, -x'
 25 '-z, y, x'
 26 'x, -y, -z'
 27 'x, -y, z'
 28 'x, -z, -y'
 29 'x, -z, y'
 30 'x, y, -z'
 31 'x, z, -y'
 32 'x, z, y'
 33 'y, -x, -z'
 34 'y, -x, z'
 35 'y, -z, -x'
 36 'y, -z, x'
 37 'y, x, -z'
 38 'y, x, z'
 39 'y, z, -x'
 40 'y, z, x'
 41 'z, -x, -y'
 42 'z, -x, y'
 43 'z, -y, -x'
 44 'z, -y, x'
 45 'z, x, -y'
 46 'z, x, y'
 47 'z, y, -x'
 48 'z, y, x'
loop_
 _atom_type_symbol
 Si
 Ru
loop_
 _atom_site_label
 _atom_site_type_symbol
 _atom_site_symmetry_multiplicity
 _atom_site_Wyckoff_symbol
 _atom_site_fract_x
 _atom_site_fract_y
 _atom_site_fract_z
 _atom_site_occupancy
 Si Si 1 b 0.5 0.5 0.5 1
 Ru Ru 1 a 0 0 0 1


_exptl_crystal_colour                    ?
_exptl_crystal_density_meas              ?
_exptl_crystal_density_diffrn            8.71
_cell_measurement_temperature            ?
_cell_measurement_radiation              'X-rays, Cu Ka1'
_cell_measurement_wavelength             1.5418
_pd_proc_wavelength                      1.5418
_cell_measurement_reflns_used            ?
_diffrn_ambient_temperature              ?
_diffrn_measurement_device               'Straumanis film'
_diffrn_measurement_device_type          ?
_diffrn_radiation_type                   'X-rays, Cu Ka1'
_diffrn_radiation_wavelength             1.5418
_diffrn_reflns_number                    ?
_exptl_absorpt_coefficient_mu            ?
_exptl_absorpt_correction_type           ?
_computing_structure_solution            'starting values from the literature'
_refine_ls_number_parameters             ?
_refine_ls_number_reflns                 ?
_refine_ls_R_factor_gt                   ?
_refine_ls_wR_factor_gt                  ?
_pd_proc_ls_proof_R_factor               ?
_pd_proc_ls_proof_wR_factor              ?
_refine_ls_R_I_factor                    ?

# Published diffraction lines

loop_
 _refln_index_h
 _refln_index_k
 _refln_index_l
 _refln_d_spacing
 _refln_intensity_meas
 1 0 0 2.916 7
 1 1 0 2.056 8
 1 1 1 1.678 3
 2 0 0 1.454 5
 2 1 0 1.301 5
 2 1 1 1.187 5.5
 2 2 0 1.029 3
 3 0 0 0.969 2.5
 3 1 0 0.92 4.5
 3 1 1 0.877 2.5
 2 2 2 0.841 2
 3 2 0 0.806 2
 3 2 1 0.778 2

# End of data set 456002

