##############################################################################
#                                                                            #
# Fe-Si            # FeSi                                          #  456457 #
#                                                                            #
##############################################################################
#                                                                            #
#                           Pearson's Crystal Data                           #
#      Crystal Structure Database for Inorganic Compounds (on DVD)           #
#                              Release 2022/23                               #
#                  Editors: Pierre Villars and Karin Cenzual                 #
#                                                                            #
#   Copyright (c) ASM International & Material Phases Data System (MPDS),    #
# Switzerland & National Institute for Materials Science (NIMS), Japan, 2022 #
#                   All rights reserved. Version 2022.07                     #
#                                                                            #
#   This copy of Pearson's Crystal Data is licensed to:                      #
#   University of Alberta, Chemistry Department, 1-5 Installations License         #
#                                                                            #
##############################################################################

data_456457
_audit_creation_date                     2023-07-09
_audit_creation_method
;
Pearson's Crystal Data browser
;
#_database_code_PCD                      456457
_database_code_PDF                       04-003-5214

# Entry summary

_chemical_formula_structural             'Fe Si'
_chemical_formula_sum                    'Fe Si'
_chemical_name_mineral                   naquite
_chemical_compound_source                ?
_chemical_name_structure_type            FeSi,cP8,198
_chemical_formula_weight                 83.9

# Bibliographic data

_publ_section_title
;
Magnetic susceptibility of solid solutions of the monosilicides FeSi-CoSi and FeSi-NiSi
;
_journal_coden_ASTM                      PHMMA6
_journal_name_full                       'Phys. Met. Metallogr.'
_journal_year                            1969
_journal_volume                          28
_journal_issue                           2
_journal_page_first                      91
_journal_page_last                       96
_journal_language                        English
loop_
 _publ_author_name
 _publ_author_address
'Sidorenko F.A.'
;
Ural Polytechnic Institute
Yekaterinburg
Russia
;
'Bortnik A.N.'
;
Ural Polytechnic Institute
Yekaterinburg
Russia
;
'Shubina T.S.'
;
Ural Polytechnic Institute
Yekaterinburg
Russia
;
'Skripova Y.A.'
;
Ural Polytechnic Institute
Yekaterinburg
Russia
;
'Zelenin L.P.'
;
Ural Polytechnic Institute
Yekaterinburg
Russia
;

# Standardized crystallographic data

_cell_length_a                           4.488
_cell_length_b                           4.488
_cell_length_c                           4.488
_cell_angle_alpha                        90
_cell_angle_beta                         90
_cell_angle_gamma                        90
_cell_volume                             90.4
_cell_formula_units_Z                    4
_space_group_IT_number                   198
_space_group_name_H-M_alt                'P 21 3'
loop_
 _space_group_symop_id
 _space_group_symop_operation_xyz
 1 'x, y, z'
 2 '1/2-x, -y, 1/2+z'
 3 '-x, 1/2+y, 1/2-z'
 4 '1/2-y, -z, 1/2+x'
 5 '-y, 1/2+z, 1/2-x'
 6 '1/2-z, -x, 1/2+y'
 7 '-z, 1/2+x, 1/2-y'
 8 '1/2+x, 1/2-y, -z'
 9 '1/2+y, 1/2-z, -x'
 10 'y, z, x'
 11 '1/2+z, 1/2-x, -y'
 12 'z, x, y'

# Atomic positions taken from type-defining entry

loop_
 _atom_type_symbol
 Si
 Fe
loop_
 _atom_site_label
 _atom_site_type_symbol
 _atom_site_symmetry_multiplicity
 _atom_site_Wyckoff_symbol
 _atom_site_fract_x
 _atom_site_fract_y
 _atom_site_fract_z
 _atom_site_occupancy
 Si1 Si 4 a 0.09262 0.09262 0.09262 1
 Fe1 Fe 4 a 0.3865 0.3865 0.3865 1


_exptl_crystal_colour                    ?
_exptl_crystal_density_meas              6.16
_exptl_crystal_density_diffrn            6.17
_cell_measurement_temperature            ?
_cell_measurement_radiation              'X-rays, Cr K'
_cell_measurement_reflns_used            ?
_diffrn_ambient_temperature              ?
_diffrn_measurement_device               'Debye-Scherrer film'
_diffrn_measurement_device_type          ?
_diffrn_radiation_type                   ?
_diffrn_reflns_number                    ?
_exptl_absorpt_coefficient_mu            ?
_exptl_absorpt_correction_type           ?
_computing_structure_solution            ?
_refine_ls_number_parameters             ?
_refine_ls_number_reflns                 ?
_refine_ls_R_factor_gt                   ?
_refine_ls_wR_factor_gt                  ?

# End of data set 456457

