##############################################################################
#                                                                            #
# Co-Sb            # CoSb2 ht                                      #  458516 #
#                                                                            #
##############################################################################
#                                                                            #
#                           Pearson's Crystal Data                           #
#      Crystal Structure Database for Inorganic Compounds (on DVD)           #
#                              Release 2022/23                               #
#                  Editors: Pierre Villars and Karin Cenzual                 #
#                                                                            #
#   Copyright (c) ASM International & Material Phases Data System (MPDS),    #
# Switzerland & National Institute for Materials Science (NIMS), Japan, 2022 #
#                   All rights reserved. Version 2022.07                     #
#                                                                            #
#   This copy of Pearson's Crystal Data is licensed to:                      #
#   University of Alberta, Chemistry Department, 1-5 Installations License         #
#                                                                            #
##############################################################################

data_458516
_audit_creation_date                     2023-07-09
_audit_creation_method
;
Pearson's Crystal Data browser
;
#_database_code_PCD                      458516
_database_code_PDF                       04-003-7087

# Entry summary

_chemical_formula_structural             'Co Sb~2~'
_chemical_formula_sum                    'Co Sb2'
_chemical_name_mineral                   ?
_chemical_compound_source                ?
_chemical_name_structure_type            FeAs~2~,oP6,58
_chemical_formula_weight                 302.4

# Bibliographic data

_publ_section_title
'Rontgenographische Untersuchungen in den Systemen Mn-Bi, Co-Sb, Ni-Sb'       
_journal_coden_ASTM                      ZPCBAL
_journal_name_full                       'Z. Phys. Chem., Abt. B'
_journal_year                            1938
_journal_volume                          40
_journal_page_first                      285
_journal_page_last                       307
_journal_language                        German
loop_
 _publ_author_name
 _publ_author_address
'Furst U.'
;
Vienna University of Technology
Institut fur Physikalische Chemie
Vienna
Austria
;
'Halla F.'
;
Vienna University of Technology
Institut fur Physikalische Chemie
Vienna
Austria
;

# Standardized crystallographic data

_cell_length_a                           5.78
_cell_length_b                           6.415
_cell_length_c                           3.208
_cell_angle_alpha                        90
_cell_angle_beta                         90
_cell_angle_gamma                        90
_cell_volume                             118.95
_cell_formula_units_Z                    2
_space_group_IT_number                   58
_space_group_name_H-M_alt                'P n n m'
loop_
 _space_group_symop_id
 _space_group_symop_operation_xyz
 1 'x, y, z'
 2 '1/2-x, 1/2+y, 1/2-z'
 3 '1/2-x, 1/2+y, 1/2+z'
 4 '-x, -y, -z'
 5 '-x, -y, z'
 6 '1/2+x, 1/2-y, 1/2-z'
 7 '1/2+x, 1/2-y, 1/2+z'
 8 'x, y, -z'

# Atomic positions taken from type-defining entry

loop_
 _atom_type_symbol
 Sb
 Co
loop_
 _atom_site_label
 _atom_site_type_symbol
 _atom_site_symmetry_multiplicity
 _atom_site_Wyckoff_symbol
 _atom_site_fract_x
 _atom_site_fract_y
 _atom_site_fract_z
 _atom_site_occupancy
 Sb1 Sb 4 g 0.1760 0.3625 0 1
 Co1 Co 2 a 0 0 0 1


_exptl_crystal_colour                    ?
_exptl_crystal_density_meas              ?
_exptl_crystal_density_diffrn            8.44
_cell_measurement_temperature            ?
_cell_measurement_radiation              'X-rays, Fe Ka'
_cell_measurement_reflns_used            ?
_diffrn_ambient_temperature              ?
_diffrn_measurement_device               film
_diffrn_measurement_device_type          ?
_diffrn_radiation_type                   ?
_diffrn_reflns_number                    ?
_exptl_absorpt_coefficient_mu            ?
_exptl_absorpt_correction_type           ?
_computing_structure_solution            ?
_refine_ls_number_parameters             ?
_refine_ls_number_reflns                 ?
_refine_ls_R_factor_gt                   ?
_refine_ls_wR_factor_gt                  ?

# Published diffraction lines

loop_
 _refln_index_h
 _refln_index_k
 _refln_index_l
 _refln_d_spacing
 _refln_intensity_meas
 0 2 0 2.888 2
 1 0 1 2.874 2
 0 1 2 2.767 2
 0 2 1 2.632 3
 1 1 1 2.558 2
 1 0 2 2.271 2
 1 1 2 2.101 1
 1 2 2 1.793 3
 0 0 4 1.601 3
 2 1 1 1.505 1
 0 4 0 1.448 3
 1 1 4 1.388 3
 1 4 0 1.322 1
 1 0 5 1.194 2
 1 1 5 1.169 5
 0 5 1 1.139 5

# End of data set 458516

