##############################################################################
#                                                                            #
# Ni-Sn            # Ni1.5Sn ht                                    #  526584 #
#                                                                            #
##############################################################################
#                                                                            #
#                           Pearson's Crystal Data                           #
#      Crystal Structure Database for Inorganic Compounds (on DVD)           #
#                              Release 2022/23                               #
#                  Editors: Pierre Villars and Karin Cenzual                 #
#                                                                            #
#   Copyright (c) ASM International & Material Phases Data System (MPDS),    #
# Switzerland & National Institute for Materials Science (NIMS), Japan, 2022 #
#                   All rights reserved. Version 2022.07                     #
#                                                                            #
#   This copy of Pearson's Crystal Data is licensed to:                      #
#   University of Alberta, Chemistry Department, 1-5 Installations License         #
#                                                                            #
##############################################################################

data_526584
_audit_creation_date                     2023-07-09
_audit_creation_method
;
Pearson's Crystal Data browser
;
#_database_code_PCD                      526584
_database_code_PDF                       04-004-1946

# Entry summary

_chemical_formula_structural             'Ni~1.5~ Sn'
_chemical_formula_sum                    'Ni1.50 Sn'
_chemical_name_mineral                   ?
_chemical_compound_source                ?
_chemical_name_structure_type            Co~1.75~Ge,hP6,194
_chemical_formula_weight                 206.7
_chemical_melting_point                  1536

# Bibliographic data

_publ_section_title
'Das quasi-binare System NiAs-Ni~1.5~Sn'                                      
_journal_coden_ASTM                      ZAACAB
_journal_name_full                       'Z. Anorg. Allg. Chem.'
_journal_year                            1965
_journal_volume                          337
_journal_page_first                      209
_journal_page_last                       213
_journal_language                        German
loop_
 _publ_author_name
 _publ_author_address
'Brand P.'
;
Halle-Wittenberg Martin Luther University (MLU)
Institut fur Physikalische Chemie mit Metall- und Werkstofflaboratorium
Halle (Saale)
Germany
;
'Briest J.'
;
Halle-Wittenberg Martin Luther University (MLU)
Institut fur Physikalische Chemie mit Metall- und Werkstofflaboratorium
Halle (Saale)
Germany
;

# Standardized crystallographic data

_cell_length_a                           4.09
_cell_length_b                           4.09
_cell_length_c                           5.173
_cell_angle_alpha                        90
_cell_angle_beta                         90
_cell_angle_gamma                        120
_cell_volume                             74.94
_cell_formula_units_Z                    2
_space_group_IT_number                   194
_space_group_name_H-M_alt                'P 63/m m c'
loop_
 _space_group_symop_id
 _space_group_symop_operation_xyz
 1 'x, y, z'
 2 '-x+y, -x, 1/2-z'
 3 '-x+y, -x, z'
 4 '-x+y, y, 1/2-z'
 5 '-x+y, y, z'
 6 '-x, -x+y, -z'
 7 '-x, -x+y, 1/2+z'
 8 '-x, -y, -z'
 9 '-x, -y, 1/2+z'
 10 '-y, -x, 1/2-z'
 11 '-y, -x, z'
 12 '-y, x-y, 1/2-z'
 13 '-y, x-y, z'
 14 'x, x-y, 1/2-z'
 15 'x, x-y, z'
 16 'x, y, 1/2-z'
 17 'x-y, -y, -z'
 18 'x-y, -y, 1/2+z'
 19 'x-y, x, -z'
 20 'x-y, x, 1/2+z'
 21 'y, -x+y, -z'
 22 'y, -x+y, 1/2+z'
 23 'y, x, -z'
 24 'y, x, 1/2+z'
loop_
 _atom_type_symbol
 Ni
 Sn
loop_
 _atom_site_label
 _atom_site_type_symbol
 _atom_site_symmetry_multiplicity
 _atom_site_Wyckoff_symbol
 _atom_site_fract_x
 _atom_site_fract_y
 _atom_site_fract_z
 _atom_site_occupancy
 Ni2 Ni 2 d 0.333333 0.666667 0.75 0.5
 Sn Sn 2 c 0.333333 0.666667 0.25 1
 Ni1 Ni 2 a 0 0 0 1


_exptl_crystal_colour                    ?
_exptl_crystal_density_meas              ?
_exptl_crystal_density_diffrn            9.16
_cell_measurement_temperature            298
_cell_measurement_radiation              'X-rays, Cu Ka'
_cell_measurement_reflns_used            ?
_diffrn_ambient_temperature              298
_diffrn_measurement_device               'Straumanis film'
_diffrn_measurement_device_type          ?
_diffrn_radiation_type                   'X-rays, Cu Ka'
_diffrn_reflns_number                    ?
_exptl_absorpt_coefficient_mu            ?
_exptl_absorpt_correction_type           ?
_computing_structure_solution            ?
_refine_ls_number_parameters             ?
_refine_ls_number_reflns                 ?
_refine_ls_R_factor_gt                   ?
_refine_ls_wR_factor_gt                  ?
_pd_proc_ls_proof_R_factor               ?
_pd_proc_ls_proof_wR_factor              ?
_refine_ls_R_I_factor                    ?

# Published diffraction lines

loop_
 _refln_index_h
 _refln_index_k
 _refln_index_l
 _refln_d_spacing
 _refln_intensity_meas
 1 0 1 2.919 7
 0 0 2 2.59 3
 1 0 2 2.083 7
 1 1 0 2.039 7
 2 0 1 1.674 5
 1 1 2 1.604 5
 1 0 3 1.55 5
 2 0 2 1.46 5
 0 0 4 1.293 5
 2 0 3 1.235 2
 2 1 2 1.188 5
 3 0 0 1.179 3
 1 1 4 1.092 5
 2 1 3 1.057 3
 2 2 0 1.022 3
 1 0 5 0.993 3
 3 1 1 0.963 3
 3 1 2 0.916 2
 3 0 4 0.87 5
 1 0 6 0.837 5
 2 1 5 0.818 5
 2 2 4 0.802 5

# End of data set 526584

