##############################################################################
#                                                                            #
# Ni-Sn            # Ni3Sn4 rt                                     #  528976 #
#                                                                            #
##############################################################################
#                                                                            #
#                           Pearson's Crystal Data                           #
#      Crystal Structure Database for Inorganic Compounds (on DVD)           #
#                              Release 2022/23                               #
#                  Editors: Pierre Villars and Karin Cenzual                 #
#                                                                            #
#   Copyright (c) ASM International & Material Phases Data System (MPDS),    #
# Switzerland & National Institute for Materials Science (NIMS), Japan, 2022 #
#                   All rights reserved. Version 2022.07                     #
#                                                                            #
#   This copy of Pearson's Crystal Data is licensed to:                      #
#   University of Alberta, Chemistry Department, 1-5 Installations License         #
#                                                                            #
##############################################################################

data_528976
_audit_creation_date                     2023-07-09
_audit_creation_method
;
Pearson's Crystal Data browser
;
#_database_code_PCD                      528976
_database_code_PDF                       04-004-4077

# Entry summary

_chemical_formula_structural             'Ni~3~ Sn~4~'
_chemical_formula_sum                    'Ni3 Sn4'
_chemical_name_mineral                   ?
_chemical_compound_source                ?
_chemical_name_structure_type            Ni~3~Sn~4~,mS14,12
_chemical_formula_weight                 650.9

# Bibliographic data

_publ_section_title                      'Die Kristallstruktur von Ni~3~Sn~4~'
_journal_coden_ASTM                      NATWAY
_journal_name_full                       Naturwissenschaften
_journal_year                            1944
_journal_volume                          32
_journal_page_first                      76b
_journal_page_last                       ?
_journal_language                        German
loop_
 _publ_author_name
 _publ_author_address
'Nowotny H.'
;
Kaiser Wilhelm Society for the Advancement of Science
Kaiser Wilhelm Institut (KWI) fur Metallforschung
Stuttgart
Germany
;
'Schubert K.'
;
Kaiser Wilhelm Society for the Advancement of Science
Kaiser Wilhelm Institut (KWI) fur Metallforschung
Stuttgart
Germany
;

# Standardized crystallographic data

_cell_length_a                           12.2
_cell_length_b                           4.055
_cell_length_c                           5.215
_cell_angle_alpha                        90
_cell_angle_beta                         105.03
_cell_angle_gamma                        90
_cell_volume                             249.17
_cell_formula_units_Z                    2
_space_group_IT_number                   12
_space_group_name_H-M_alt                'C 1 2/m 1'
loop_
 _space_group_symop_id
 _space_group_symop_operation_xyz
 1 'x, y, z'
 2 '-x, -y, -z'
 3 '-x, y, -z'
 4 'x, -y, z'
 5 '1/2+x, 1/2+y, z'
 6 '1/2-x, 1/2-y, -z'
 7 '1/2-x, 1/2+y, -z'
 8 '1/2+x, 1/2-y, z'
loop_
 _atom_type_symbol
 Sn
 Ni
loop_
 _atom_site_label
 _atom_site_type_symbol
 _atom_site_symmetry_multiplicity
 _atom_site_Wyckoff_symbol
 _atom_site_fract_x
 _atom_site_fract_y
 _atom_site_fract_z
 _atom_site_occupancy
 Sn2 Sn 4 i 0.18 0 0.8 1
 Ni2 Ni 4 i 0.22 0 0.35 1
 Sn1 Sn 4 i 0.572 0 0.325 1
 Ni1 Ni 2 a 0 0 0 1


_exptl_crystal_colour                    ?
_exptl_crystal_density_meas              ?
_exptl_crystal_density_diffrn            8.68
_cell_measurement_temperature            ?
_cell_measurement_radiation              X-rays
_cell_measurement_reflns_used            ?
_diffrn_ambient_temperature              ?
_diffrn_measurement_device               'rotation photographs'
_diffrn_measurement_device_type          ?
_diffrn_radiation_type                   X-rays
_diffrn_reflns_number                    ?
_exptl_absorpt_coefficient_mu            ?
_exptl_absorpt_correction_type           ?
_computing_structure_solution            ?
_refine_ls_number_parameters             ?
_refine_ls_number_reflns                 ?
_refine_ls_R_factor_gt                   ?
_refine_ls_wR_factor_gt                  ?

# End of data set 528976

