##############################################################################
#                                                                            #
# Ga-Pt            # Pt2Ga rt                                      #  529013 #
#                                                                            #
##############################################################################
#                                                                            #
#                           Pearson's Crystal Data                           #
#      Crystal Structure Database for Inorganic Compounds (on DVD)           #
#                              Release 2022/23                               #
#                  Editors: Pierre Villars and Karin Cenzual                 #
#                                                                            #
#   Copyright (c) ASM International & Material Phases Data System (MPDS),    #
# Switzerland & National Institute for Materials Science (NIMS), Japan, 2022 #
#                   All rights reserved. Version 2022.07                     #
#                                                                            #
#   This copy of Pearson's Crystal Data is licensed to:                      #
#   University of Alberta, Chemistry Department, 1-5 Installations License         #
#                                                                            #
##############################################################################

data_529013
_audit_creation_date                     2023-07-09
_audit_creation_method
;
Pearson's Crystal Data browser
;
#_database_code_PCD                      529013
_database_code_PDF                       04-004-4107

# Entry summary

_chemical_formula_structural             'Pt~2~ Ga'
_chemical_formula_sum                    'Ga Pt2'
_chemical_name_mineral                   ?
_chemical_compound_source                ?
_chemical_name_structure_type            Pt~2~Ga,oP24,51
_chemical_formula_weight                 459.9

# Bibliographic data

_publ_section_title
'Einige Strukturdaten metallischer Phasen 13. Mitteilung'                     
_journal_coden_ASTM                      NATWAY
_journal_name_full                       Naturwissenschaften
_journal_year                            1968
_journal_volume                          55
_journal_page_first                      542
_journal_page_last                       543
_journal_language                        German
loop_
 _publ_author_name
 _publ_author_address
'Schubert K.'
;
Max Planck Society (MPG)
Max Planck Institut (MPI) fur Metallforschung
Stuttgart
Germany
;
'Bhan S.'
;
Max Planck Society (MPG)
Max Planck Institut (MPI) fur Metallforschung
Stuttgart
Germany
;
'Biswas T.K.'
;
Max Planck Society (MPG)
Max Planck Institut (MPI) fur Metallforschung
Stuttgart
Germany
;
'Frank K.'
;
Max Planck Society (MPG)
Max Planck Institut (MPI) fur Metallforschung
Stuttgart
Germany
;
'Panday P.K.'
;
Max Planck Society (MPG)
Max Planck Institut (MPI) fur Metallforschung
Stuttgart
Germany
;

# Standardized crystallographic data

_cell_length_a                           16.42
_cell_length_b                           3.919
_cell_length_c                           5.473
_cell_angle_alpha                        90
_cell_angle_beta                         90
_cell_angle_gamma                        90
_cell_volume                             352.19
_cell_formula_units_Z                    8
_space_group_IT_number                   51
_space_group_name_H-M_alt                'P m m a'
loop_
 _space_group_symop_id
 _space_group_symop_operation_xyz
 1 'x, y, z'
 2 '1/2-x, -y, z'
 3 '1/2-x, y, z'
 4 '-x, -y, -z'
 5 '-x, y, -z'
 6 '1/2+x, -y, -z'
 7 '1/2+x, y, -z'
 8 'x, -y, z'
loop_
 _atom_type_symbol
 Ga
 Pt
loop_
 _atom_site_label
 _atom_site_type_symbol
 _atom_site_symmetry_multiplicity
 _atom_site_Wyckoff_symbol
 _atom_site_fract_x
 _atom_site_fract_y
 _atom_site_fract_z
 _atom_site_occupancy
 Ga2 Ga 4 j 0.095 0.5 0.275 1
 Pt1 Pt 4 j 0.578 0.5 0.23 1
 Pt4 Pt 4 i 0.167 0 0.0 1
 Pt5 Pt 4 i 0.167 0 0.5 1
 Pt2 Pt 2 f 0.25 0.5 0.25 1
 Ga3 Ga 2 f 0.25 0.5 0.75 1
 Pt3 Pt 2 c 0 0 0.5 1
 Ga1 Ga 2 a 0 0 0 1


_exptl_crystal_colour                    ?
_exptl_crystal_density_meas              ?
_exptl_crystal_density_diffrn            17.35
_cell_measurement_temperature            ?
_cell_measurement_radiation              X-rays
_cell_measurement_reflns_used            ?
_diffrn_ambient_temperature              ?
_diffrn_measurement_device               film
_diffrn_measurement_device_type          ?
_diffrn_radiation_type                   X-rays
_diffrn_reflns_number                    ?
_exptl_absorpt_coefficient_mu            ?
_exptl_absorpt_correction_type           ?
_computing_structure_solution            ?
_refine_ls_number_parameters             ?
_refine_ls_number_reflns                 ?
_refine_ls_R_factor_gt                   ?
_refine_ls_wR_factor_gt                  ?
_pd_proc_ls_proof_R_factor               ?
_pd_proc_ls_proof_wR_factor              ?
_refine_ls_R_I_factor                    ?

# End of data set 529013

