##############################################################################
#                                                                            #
# Rh-Sb            # RhSb2 rt                                      #  530099 #
#                                                                            #
##############################################################################
#                                                                            #
#                           Pearson's Crystal Data                           #
#      Crystal Structure Database for Inorganic Compounds (on DVD)           #
#                              Release 2022/23                               #
#                  Editors: Pierre Villars and Karin Cenzual                 #
#                                                                            #
#   Copyright (c) ASM International & Material Phases Data System (MPDS),    #
# Switzerland & National Institute for Materials Science (NIMS), Japan, 2022 #
#                   All rights reserved. Version 2022.07                     #
#                                                                            #
#   This copy of Pearson's Crystal Data is licensed to:                      #
#   University of Alberta, Chemistry Department, 1-5 Installations License         #
#                                                                            #
##############################################################################

data_530099
_audit_creation_date                     2023-07-09
_audit_creation_method
;
Pearson's Crystal Data browser
;
#_database_code_PCD                      530099
_database_code_PDF                       04-004-4711

# Entry summary

_chemical_formula_structural             'Rh Sb~2~'
_chemical_formula_sum                    'Rh Sb2'
_chemical_name_mineral                   ?
_chemical_compound_source                ?
_chemical_name_structure_type            CoSb~2~,mP12,14
_chemical_formula_weight                 346.4

# Bibliographic data

_publ_section_title
;
Transition metal arsenides. V. A note on the rhodium/arsenic system and the monoclinic diarsenides of the cobalt family
;
_journal_coden_ASTM                      CJCHAG
_journal_name_full                       'Can. J. Chem.'
_journal_year                            1962
_journal_volume                          40
_journal_page_first                      814
_journal_page_last                       818
_journal_language                        English
loop_
 _publ_author_name
 _publ_author_address
'Quesnel J.C.'
;
National Research Council Canada (NRC)
Division of Applied Chemistry
Ottawa
Canada
;
'Heyding R.D.'
;
National Research Council Canada (NRC)
Division of Applied Chemistry
Ottawa
Canada
;

# Standardized crystallographic data

_cell_length_a                           6.604
_cell_length_b                           6.557
_cell_length_c                           6.668
_cell_angle_alpha                        90
_cell_angle_beta                         116.63
_cell_angle_gamma                        90
_cell_volume                             258.11
_cell_formula_units_Z                    4
_space_group_IT_number                   14
_space_group_name_H-M_alt                'P 1 21/c 1'
loop_
 _space_group_symop_id
 _space_group_symop_operation_xyz
 1 'x, y, z'
 2 '-x, -y, -z'
 3 '-x, 1/2+y, 1/2-z'
 4 'x, 1/2-y, 1/2+z'

# Atomic positions taken from type-defining entry

loop_
 _atom_type_symbol
 Sb
 Rh
loop_
 _atom_site_label
 _atom_site_type_symbol
 _atom_site_symmetry_multiplicity
 _atom_site_Wyckoff_symbol
 _atom_site_fract_x
 _atom_site_fract_y
 _atom_site_fract_z
 _atom_site_occupancy
 Sb1 Sb 4 e 0.1534 0.6431 0.3325 1
 Rh1 Rh 4 e 0.2299 0.0005 0.2183 1
 Sb2 Sb 4 e 0.3511 0.3607 0.1329 1


_exptl_crystal_colour                    ?
_exptl_crystal_density_meas              ?
_exptl_crystal_density_diffrn            8.91
_cell_measurement_temperature            ?
_cell_measurement_radiation              'X-rays, Cu Ka'
_cell_measurement_reflns_used            ?
_diffrn_ambient_temperature              ?
_diffrn_measurement_device               'Guinier-de Wolff film'
_diffrn_measurement_device_type          ?
_diffrn_radiation_type                   ?
_diffrn_reflns_number                    ?
_exptl_absorpt_coefficient_mu            ?
_exptl_absorpt_correction_type           ?
_computing_structure_solution            ?
_refine_ls_number_parameters             ?
_refine_ls_number_reflns                 ?
_refine_ls_R_factor_gt                   ?
_refine_ls_wR_factor_gt                  ?

# Published diffraction lines

loop_
 _refln_index_h
 _refln_index_k
 _refln_index_l
 _refln_d_spacing
 _refln_intensity_meas
 1 1 -1 4.288 26
 0 2 0 3.28 17
 1 1 1 3.078 17
 0 0 2 2.982 51
 1 1 -2 2.978 51
 2 0 0 2.953 51
 1 2 -1 2.838 100
 0 1 2 2.715 64
 2 1 0 2.691 64
 2 1 -2 2.6 33
 1 0 2 2.279 13
 0 2 2 2.207 13
 2 2 0 2.193 13
 3 0 -2 2.143 21
 1 1 -3 2.094 41
 3 1 -1 2.073 41
 1 3 0 2.052 33
 1 3 -1 2.04 41
 0 1 3 1.903 8.6
 1 2 2 1.872 3.3
 1 3 1 1.853 51
 1 2 -3 1.831 17
 3 2 -1 1.815 33
 0 3 2 1.762 11
 2 3 0 1.756 11
 2 0 2 1.742 21
 0 2 3 1.701 8.6
 3 2 0 1.68 5.5
 3 2 -3 1.636 8.6
 2 3 -3 1.538 5.5
 0 0 4 1.488 21
 2 4 -2 1.418 33
 4 2 0 1.343 5.5
 1 3 3 1.327 7
 3 3 1 1.322 5.5
 5 1 -3 1.279 33
 5 1 -1 1.25 13

# End of data set 530099

