##############################################################################
#                                                                            #
# Ga-Ni            # Ni3Ga4 rt                                     #  530433 #
#                                                                            #
##############################################################################
#                                                                            #
#                           Pearson's Crystal Data                           #
#      Crystal Structure Database for Inorganic Compounds (on DVD)           #
#                              Release 2022/23                               #
#                  Editors: Pierre Villars and Karin Cenzual                 #
#                                                                            #
#   Copyright (c) ASM International & Material Phases Data System (MPDS),    #
# Switzerland & National Institute for Materials Science (NIMS), Japan, 2022 #
#                   All rights reserved. Version 2022.07                     #
#                                                                            #
#   This copy of Pearson's Crystal Data is licensed to:                      #
#   University of Alberta, Chemistry Department, 1-5 Installations License         #
#                                                                            #
##############################################################################

data_530433
_audit_creation_date                     2023-07-09
_audit_creation_method
;
Pearson's Crystal Data browser
;
#_database_code_PCD                      530433
_database_code_PDF                       04-004-5004

# Entry summary

_chemical_formula_structural             'Ni~3~ Ga~4~'
_chemical_formula_sum                    'Ga4 Ni3'
_chemical_name_mineral                   ?
_chemical_compound_source                ?
_chemical_name_structure_type            Ni~3~Ga~4~,cI112,230
_chemical_formula_weight                 455.0

# Bibliographic data

_publ_section_title
;
Metallurgical study of Ni/GaAs contacts. I. Experimental determination of the solid portion of the Ni-Ga-As ternary-phase diagram
;
_journal_coden_ASTM                      JAPIAU
_journal_name_full                       'J. Appl. Phys.'
_journal_year                            1989
_journal_volume                          66
_journal_page_first                      2122
_journal_page_last                       2128
_journal_language                        English
loop_
 _publ_author_name
 _publ_author_address
'Guerin R.'
;
Centre National d'Etudes des Telecommunications (CNET)
Lannion
France
;
'Guivarc'h A.'
;
Centre National d'Etudes des Telecommunications (CNET)
Lannion
France
;

# Standardized crystallographic data

_cell_length_a                           11.411
_cell_length_b                           11.411
_cell_length_c                           11.411
_cell_angle_alpha                        90
_cell_angle_beta                         90
_cell_angle_gamma                        90
_cell_volume                             1485.84
_cell_formula_units_Z                    16
_space_group_IT_number                   230
_space_group_name_H-M_alt                'I a -3 d'
loop_
 _space_group_symop_id
 _space_group_symop_operation_xyz
 1 'x, y, z'
 2 '1/2-x, y, -z'
 3 '1/4-x, 1/4-z, 1/4-y'
 4 '1/4-x, -1/4-z, -1/4+y'
 5 '1/4-x, -1/4+z, 1/4+y'
 6 '-x, 1/2-y, z'
 7 '-x, -y, -z'
 8 '-x, y, 1/2+z'
 9 '-1/4-x, -1/4+z, 1/4-y'
 10 '1/2-y, z, -x'
 11 '1/4-y, 1/4-x, 1/4-z'
 12 '1/4-y, -1/4-x, -1/4+z'
 13 '1/4-y, -1/4+x, 1/4+z'
 14 '-y, 1/2-z, x'
 15 '-y, -z, -x'
 16 '-y, z, 1/2+x'
 17 '-1/4-y, -1/4+x, 1/4-z'
 18 '1/2-z, x, -y'
 19 '1/4-z, 1/4-y, 1/4-x'
 20 '1/4-z, -1/4-y, -1/4+x'
 21 '1/4-z, -1/4+y, 1/4+x'
 22 '-z, 1/2-x, y'
 23 '-z, -x, -y'
 24 '-z, x, 1/2+y'
 25 '-1/4-z, -1/4+y, 1/4-x'
 26 '1/2+x, -y, z'
 27 '1/4+x, 1/4-z, -1/4+y'
 28 'x, -y, 1/2-z'
 29 'x, 1/2+y, -z'
 30 '-1/4+x, 1/4-z, -1/4-y'
 31 '-1/4+x, 1/4+z, 1/4-y'
 32 '-1/4+x, -1/4+z, -1/4+y'
 33 '1/2+y, -z, x'
 34 '1/4+y, 1/4-x, -1/4+z'
 35 'y, -z, 1/2-x'
 36 'y, 1/2+z, -x'
 37 'y, z, x'
 38 '-1/4+y, 1/4-x, -1/4-z'
 39 '-1/4+y, 1/4+x, 1/4-z'
 40 '-1/4+y, -1/4+x, -1/4+z'
 41 '1/2+z, -x, y'
 42 '1/4+z, 1/4-y, -1/4+x'
 43 'z, -x, 1/2-y'
 44 'z, 1/2+x, -y'
 45 'z, x, y'
 46 '-1/4+z, 1/4-y, -1/4-x'
 47 '-1/4+z, 1/4+y, 1/4-x'
 48 '-1/4+z, -1/4+y, -1/4+x'
 49 '1/2+x, 1/2+y, 1/2+z'
 50 '1-x, 1/2+y, 1/2-z'
 51 '3/4-x, 3/4-z, 3/4-y'
 52 '3/4-x, 1/4-z, 1/4+y'
 53 '3/4-x, 1/4+z, 3/4+y'
 54 '1/2-x, 1-y, 1/2+z'
 55 '1/2-x, 1/2-y, 1/2-z'
 56 '1/2-x, 1/2+y, 1+z'
 57 '1/4-x, 1/4+z, 3/4-y'
 58 '1-y, 1/2+z, 1/2-x'
 59 '3/4-y, 3/4-x, 3/4-z'
 60 '3/4-y, 1/4-x, 1/4+z'
 61 '3/4-y, 1/4+x, 3/4+z'
 62 '1/2-y, 1-z, 1/2+x'
 63 '1/2-y, 1/2-z, 1/2-x'
 64 '1/2-y, 1/2+z, 1+x'
 65 '1/4-y, 1/4+x, 3/4-z'
 66 '1-z, 1/2+x, 1/2-y'
 67 '3/4-z, 3/4-y, 3/4-x'
 68 '3/4-z, 1/4-y, 1/4+x'
 69 '3/4-z, 1/4+y, 3/4+x'
 70 '1/2-z, 1-x, 1/2+y'
 71 '1/2-z, 1/2-x, 1/2-y'
 72 '1/2-z, 1/2+x, 1+y'
 73 '1/4-z, 1/4+y, 3/4-x'
 74 '1+x, 1/2-y, 1/2+z'
 75 '3/4+x, 3/4-z, 1/4+y'
 76 '1/2+x, 1/2-y, 1-z'
 77 '1/2+x, 1+y, 1/2-z'
 78 '1/4+x, 3/4-z, 1/4-y'
 79 '1/4+x, 3/4+z, 3/4-y'
 80 '1/4+x, 1/4+z, 1/4+y'
 81 '1+y, 1/2-z, 1/2+x'
 82 '3/4+y, 3/4-x, 1/4+z'
 83 '1/2+y, 1/2-z, 1-x'
 84 '1/2+y, 1+z, 1/2-x'
 85 '1/2+y, 1/2+z, 1/2+x'
 86 '1/4+y, 3/4-x, 1/4-z'
 87 '1/4+y, 3/4+x, 3/4-z'
 88 '1/4+y, 1/4+x, 1/4+z'
 89 '1+z, 1/2-x, 1/2+y'
 90 '3/4+z, 3/4-y, 1/4+x'
 91 '1/2+z, 1/2-x, 1-y'
 92 '1/2+z, 1+x, 1/2-y'
 93 '1/2+z, 1/2+x, 1/2+y'
 94 '1/4+z, 3/4-y, 1/4-x'
 95 '1/4+z, 3/4+y, 3/4-x'
 96 '1/4+z, 1/4+y, 1/4+x'

# Atomic positions taken from type-defining entry

loop_
 _atom_type_symbol
 Ni
 Ga
loop_
 _atom_site_label
 _atom_site_type_symbol
 _atom_site_symmetry_multiplicity
 _atom_site_Wyckoff_symbol
 _atom_site_fract_x
 _atom_site_fract_y
 _atom_site_fract_z
 _atom_site_occupancy
 Ni1 Ni 48 g 0.125 0.625 0.625 1
 Ga1 Ga 48 f 0.0 0 0.25 1
 Ga2 Ga 16 a 0 0 0 1


_exptl_crystal_colour                    ?
_exptl_crystal_density_meas              ?
_exptl_crystal_density_diffrn            8.14
_cell_measurement_temperature            ?
_cell_measurement_radiation              'X-rays, Cu Ka1'
_cell_measurement_wavelength             1.54051
_pd_proc_wavelength                      1.54051
_cell_measurement_reflns_used            ?
_diffrn_ambient_temperature              ?
_diffrn_measurement_device               'automatic diffractometer'
_diffrn_measurement_device_type          ?
_diffrn_radiation_type                   ?
_diffrn_reflns_number                    ?
_exptl_absorpt_coefficient_mu            ?
_exptl_absorpt_correction_type           ?
_computing_structure_solution            ?
_refine_ls_number_parameters             ?
_refine_ls_number_reflns                 ?
_refine_ls_R_factor_gt                   ?
_refine_ls_wR_factor_gt                  ?

# End of data set 530433

