##############################################################################
#                                                                            #
# Ga-Os            # OsGa2 hp                                      #  531285 #
#                                                                            #
##############################################################################
#                                                                            #
#                           Pearson's Crystal Data                           #
#      Crystal Structure Database for Inorganic Compounds (on DVD)           #
#                              Release 2022/23                               #
#                  Editors: Pierre Villars and Karin Cenzual                 #
#                                                                            #
#   Copyright (c) ASM International & Material Phases Data System (MPDS),    #
# Switzerland & National Institute for Materials Science (NIMS), Japan, 2022 #
#                   All rights reserved. Version 2022.07                     #
#                                                                            #
#   This copy of Pearson's Crystal Data is licensed to:                      #
#   University of Alberta, Chemistry Department, 1-5 Installations License         #
#                                                                            #
##############################################################################

data_531285
_audit_creation_date                     2023-07-09
_audit_creation_method
;
Pearson's Crystal Data browser
;
#_database_code_PCD                      531285
_database_code_PDF                       04-004-5749

# Entry summary

_chemical_formula_structural             'Os Ga~2~'
_chemical_formula_sum                    'Ga2 Os'
_chemical_name_mineral                   ?
_chemical_compound_source                ?
_chemical_name_structure_type            TiSi~2~,oF24,70
_chemical_formula_weight                 329.6

# Bibliographic data

_publ_section_title
'New phases in Re-Ga and Os-Ga systems, obtained at a high pressure'          
_journal_coden_ASTM                      INOMAF
_journal_name_full                       'Inorg. Mater.'
_journal_year                            1982
_journal_volume                          18
_journal_page_first                      205
_journal_page_last                       208
_journal_language                        English
loop_
 _publ_author_name
 _publ_author_address
'Popova S.V.'
;
Russian Academy of Sciences (RAS)
Vereshchagin V.V. Institute of High Pressure Physics
Moscow-Troitsk
Russia
;
'Fomicheva L.N.'
;
Russian Academy of Sciences (RAS)
Vereshchagin V.V. Institute of High Pressure Physics
Moscow-Troitsk
Russia
;

# Standardized crystallographic data

_cell_length_a                           4.74
_cell_length_b                           8.242
_cell_length_c                           8.747
_cell_angle_alpha                        90
_cell_angle_beta                         90
_cell_angle_gamma                        90
_cell_volume                             341.72
_cell_formula_units_Z                    8
_space_group_IT_number                   70
_space_group_name_H-M_alt                'F d d d (origin choice 2)'
loop_
 _space_group_symop_id
 _space_group_symop_operation_xyz
 1 'x, y, z'
 2 '1/4-x, 1/4-y, z'
 3 '1/4-x, y, 1/4-z'
 4 '-x, -y, -z'
 5 '-x, -1/4+y, -1/4+z'
 6 'x, 1/4-y, 1/4-z'
 7 '-1/4+x, -y, -1/4+z'
 8 '-1/4+x, -1/4+y, -z'
 9 'x, 1/2+y, 1/2+z'
 10 '1/4-x, 3/4-y, 1/2+z'
 11 '1/4-x, 1/2+y, 3/4-z'
 12 '-x, 1/2-y, 1/2-z'
 13 '-x, 1/4+y, 1/4+z'
 14 'x, 3/4-y, 3/4-z'
 15 '-1/4+x, 1/2-y, 1/4+z'
 16 '-1/4+x, 1/4+y, 1/2-z'
 17 '1/2+x, y, 1/2+z'
 18 '3/4-x, 1/4-y, 1/2+z'
 19 '3/4-x, y, 3/4-z'
 20 '1/2-x, -y, 1/2-z'
 21 '1/2-x, -1/4+y, 1/4+z'
 22 '1/2+x, 1/4-y, 3/4-z'
 23 '1/4+x, -y, 1/4+z'
 24 '1/4+x, -1/4+y, 1/2-z'
 25 '1/2+x, 1/2+y, z'
 26 '3/4-x, 3/4-y, z'
 27 '3/4-x, 1/2+y, 1/4-z'
 28 '1/2-x, 1/2-y, -z'
 29 '1/2-x, 1/4+y, -1/4+z'
 30 '1/2+x, 3/4-y, 1/4-z'
 31 '1/4+x, 1/2-y, -1/4+z'
 32 '1/4+x, 1/4+y, -z'
loop_
 _atom_type_symbol
 Ga
 Os
loop_
 _atom_site_label
 _atom_site_type_symbol
 _atom_site_symmetry_multiplicity
 _atom_site_Wyckoff_symbol
 _atom_site_fract_x
 _atom_site_fract_y
 _atom_site_fract_z
 _atom_site_occupancy
 Ga Ga 16 f 0.125 0.455 0.125 1
 Os Os 8 a 0.125 0.125 0.125 1


_exptl_crystal_colour                    ?
_exptl_crystal_density_meas              12.7(3)
_exptl_crystal_density_diffrn            12.82
_cell_measurement_temperature            ?
_cell_measurement_radiation              'X-rays, Cu Ka'
_cell_measurement_reflns_used            ?
_diffrn_ambient_temperature              ?
_diffrn_measurement_device               film
_diffrn_measurement_device_type          ?
_diffrn_radiation_type                   'X-rays, Cu Ka'
_diffrn_reflns_number                    ?
_exptl_absorpt_coefficient_mu            ?
_exptl_absorpt_correction_type           ?
_computing_structure_solution            'starting values from the literature'
_refine_ls_number_parameters             ?
_refine_ls_number_reflns                 ?
_refine_ls_R_factor_gt                   0.16
_refine_ls_wR_factor_gt                  ?
_pd_proc_ls_proof_R_factor               ?
_pd_proc_ls_proof_wR_factor              ?
_refine_ls_R_I_factor                    ?

# Published diffraction lines

loop_
 _refln_index_h
 _refln_index_k
 _refln_index_l
 _refln_d_spacing
 _refln_intensity_meas
 1 1 1 3.709 42
 2 0 2 2.904 21
 1 1 3 2.372 21
 3 1 1 2.285 100
 0 0 4 2.182 50
 0 2 2 2.081 100
 2 2 0 2.054 10
 3 1 3 1.84 71
 1 1 5 1.61 8
 5 1 1 1.53 10
 2 2 4 1.497 21
 4 2 2 1.464 10
 3 1 5 1.407 42
 2 0 6 1.37 21
 3 3 1 1.353 42
 6 0 2 1.31 38
 0 2 6 1.239 42
 6 2 0 1.187 26
 7 1 1 1.131 8
 3 1 7 1.105 24
 0 0 8 1.093 24
 3 3 5 1.079 24
 6 2 4 1.043 46
 8 0 0 1.028 4
 6 0 6 0.999 10
 5 1 7 0.973 10
 7 1 5 0.956 8
 1 1 9 0.946 8
 8 0 4 0.93 4
 8 2 2 0.923 10

# End of data set 531285

