##############################################################################
#                                                                            #
# Ni-Si            # Ni2Si rt                                      #  531442 #
#                                                                            #
##############################################################################
#                                                                            #
#                           Pearson's Crystal Data                           #
#      Crystal Structure Database for Inorganic Compounds (on DVD)           #
#                              Release 2022/23                               #
#                  Editors: Pierre Villars and Karin Cenzual                 #
#                                                                            #
#   Copyright (c) ASM International & Material Phases Data System (MPDS),    #
# Switzerland & National Institute for Materials Science (NIMS), Japan, 2022 #
#                   All rights reserved. Version 2022.07                     #
#                                                                            #
#   This copy of Pearson's Crystal Data is licensed to:                      #
#   University of Alberta, Chemistry Department, 1-5 Installations License         #
#                                                                            #
##############################################################################

data_531442
_audit_creation_date                     2023-07-09
_audit_creation_method
;
Pearson's Crystal Data browser
;
#_database_code_PCD                      531442
_database_code_PDF                       04-004-5890

# Entry summary

_chemical_formula_structural             'Ni~2~ Si'
_chemical_formula_sum                    'Ni2 Si'
_chemical_name_mineral                   ?
_chemical_compound_source                ?
_chemical_name_structure_type            Co~2~Si-b,oP12,62
_chemical_formula_weight                 145.5

# Bibliographic data

_publ_section_title
;
Special features of the crystallization Ni~2~Si and Co~2~Si, and some characteristics of these compounds
;
_journal_coden_ASTM                      INOMAF
_journal_name_full                       'Inorg. Mater.'
_journal_year                            1972
_journal_volume                          8
_journal_page_first                      408
_journal_page_last                       411
_journal_language                        English
loop_
 _publ_author_name
 _publ_author_address
'Frolov A.A.'
;
Russian Academy of Sciences (RAS)
Kirov S.M. Polytechnic Institute
Yekaterinburg
Russia
;
'Putintsev Y.V.'
;
Russian Academy of Sciences (RAS)
Kirov S.M. Polytechnic Institute
Yekaterinburg
Russia
;
'Sidorenko F.A.'
;
Russian Academy of Sciences (RAS)
Kirov S.M. Polytechnic Institute
Yekaterinburg
Russia
;
'Gel'd P.V.'
;
Russian Academy of Sciences (RAS)
Kirov S.M. Polytechnic Institute
Yekaterinburg
Russia
;
'Krentsis R.P.'
;
Russian Academy of Sciences (RAS)
Kirov S.M. Polytechnic Institute
Yekaterinburg
Russia
;

# Standardized crystallographic data

_cell_length_a                           4.979
_cell_length_b                           3.754
_cell_length_c                           7.065
_cell_angle_alpha                        90
_cell_angle_beta                         90
_cell_angle_gamma                        90
_cell_volume                             132.05
_cell_formula_units_Z                    4
_space_group_IT_number                   62
_space_group_name_H-M_alt                'P n m a'
loop_
 _space_group_symop_id
 _space_group_symop_operation_xyz
 1 'x, y, z'
 2 '1/2-x, -y, 1/2+z'
 3 '1/2-x, 1/2+y, 1/2+z'
 4 '-x, -y, -z'
 5 '-x, 1/2+y, -z'
 6 '1/2+x, 1/2-y, 1/2-z'
 7 '1/2+x, y, 1/2-z'
 8 'x, 1/2-y, z'

# Atomic positions taken from type-defining entry

loop_
 _atom_type_symbol
 Ni
 Si
loop_
 _atom_site_label
 _atom_site_type_symbol
 _atom_site_symmetry_multiplicity
 _atom_site_Wyckoff_symbol
 _atom_site_fract_x
 _atom_site_fract_y
 _atom_site_fract_z
 _atom_site_occupancy
 Ni1 Ni 4 c 0.038 0.25 0.718 1
 Ni2 Ni 4 c 0.174 0.25 0.062 1
 Si1 Si 4 c 0.202 0.25 0.389 1


_exptl_crystal_colour                    ?
_exptl_crystal_density_meas              ?
_exptl_crystal_density_diffrn            7.32
_cell_measurement_temperature            ?
_cell_measurement_radiation              'X-rays, Fe K'
_cell_measurement_reflns_used            ?
_diffrn_ambient_temperature              ?
_diffrn_measurement_device               film
_diffrn_measurement_device_type          ?
_diffrn_radiation_type                   ?
_diffrn_reflns_number                    ?
_exptl_absorpt_coefficient_mu            ?
_exptl_absorpt_correction_type           ?
_computing_structure_solution            ?
_refine_ls_number_parameters             ?
_refine_ls_number_reflns                 ?
_refine_ls_R_factor_gt                   ?
_refine_ls_wR_factor_gt                  ?

# End of data set 531442

