##############################################################################
#                                                                            #
# Pd-Si            # Pd3Si0.6 ht                                   #  531882 #
#                                                                            #
##############################################################################
#                                                                            #
#                           Pearson's Crystal Data                           #
#      Crystal Structure Database for Inorganic Compounds (on DVD)           #
#                              Release 2022/23                               #
#                  Editors: Pierre Villars and Karin Cenzual                 #
#                                                                            #
#   Copyright (c) ASM International & Material Phases Data System (MPDS),    #
# Switzerland & National Institute for Materials Science (NIMS), Japan, 2022 #
#                   All rights reserved. Version 2022.07                     #
#                                                                            #
#   This copy of Pearson's Crystal Data is licensed to:                      #
#   University of Alberta, Chemistry Department, 1-5 Installations License         #
#                                                                            #
##############################################################################

data_531882
_audit_creation_date                     2023-07-09
_audit_creation_method
;
Pearson's Crystal Data browser
;
#_database_code_PCD                      531882
_database_code_PDF                       ?

# Entry summary

_chemical_formula_structural             'Pd~3~ Si~0.6~'
_chemical_formula_sum                    'Pd3 Si0.6'
_chemical_name_mineral                   ?
_chemical_compound_source                ?
_chemical_name_structure_type            Pd~3~P~0.68~,mP24,4
_chemical_formula_weight                 336.1
_chemical_melting_point                  1085

# Bibliographic data

_publ_section_title                      'Equilibrium Silicides of Palladium'
_journal_coden_ASTM                      MTTABN
_journal_name_full                       'Metall. Trans. A'
_journal_year                            1981
_journal_volume                          12
_journal_page_first                      1455
_journal_page_last                       1460
_journal_language                        English
loop_
 _publ_author_name
 _publ_author_address
'Wysocki J.A.'
;
Hughes Aircraft Co.
Malibu
U.S.A. California
;
'Duwez P.E.'
;
California Institute of Technology (Caltech)
Pasadena
U.S.A. California
;

# Standardized crystallographic data

_cell_length_a                           5.555
_cell_length_b                           7.485
_cell_length_c                           8.465
_cell_angle_alpha                        90
_cell_angle_beta                         100.7
_cell_angle_gamma                        90
_cell_volume                             345.85
_cell_formula_units_Z                    6
_space_group_IT_number                   4
_space_group_name_H-M_alt                'P 1 21 1'
loop_
 _space_group_symop_id
 _space_group_symop_operation_xyz
 1 'x, y, z'
 2 '-x, 1/2+y, -z'

# Atomic positions taken from type-defining entry

loop_
 _atom_type_symbol
 Si
 Pd
loop_
 _atom_site_label
 _atom_site_type_symbol
 _atom_site_symmetry_multiplicity
 _atom_site_Wyckoff_symbol
 _atom_site_fract_x
 _atom_site_fract_y
 _atom_site_fract_z
 _atom_site_occupancy
 Si1 Si 2 a 0.0653 0.1752 0.5776 0.600
 Pd1 Pd 2 a 0.1064 0.6791 0.1830 1
 Pd2 Pd 2 a 0.1466 0.3753 0.3766 1
 Pd3 Pd 2 a 0.1497 0.0000 0.3745 1
 Pd4 Pd 2 a 0.2481 0.0061 0.0489 1
 Pd5 Pd 2 a 0.2558 0.3755 0.0357 1
 Pd6 Pd 2 a 0.3650 0.3711 0.7143 1
 Pd7 Pd 2 a 0.3768 0.0047 0.7226 1
 Si2 Si 2 a 0.4054 0.1771 0.2312 0.600
 Si3 Si 2 a 0.4776 0.6945 0.0658 0.600
 Pd8 Pd 2 a 0.6277 0.1823 0.4732 1
 Pd9 Pd 2 a 0.8061 0.1864 0.1463 1


_exptl_crystal_colour                    ?
_exptl_crystal_density_meas              ?
_exptl_crystal_density_diffrn            9.68
_cell_measurement_temperature            ?
_cell_measurement_radiation              X-rays
_cell_measurement_reflns_used            ?
_diffrn_ambient_temperature              ?
_diffrn_measurement_device               'automatic diffractometer'
_diffrn_measurement_device_type          ?
_diffrn_radiation_type                   ?
_diffrn_reflns_number                    ?
_exptl_absorpt_coefficient_mu            ?
_exptl_absorpt_correction_type           ?
_computing_structure_solution            ?
_refine_ls_number_parameters             ?
_refine_ls_number_reflns                 ?
_refine_ls_R_factor_gt                   ?
_refine_ls_wR_factor_gt                  ?

# Published diffraction lines

loop_
 _refln_index_h
 _refln_index_k
 _refln_index_l
 _refln_d_spacing
 _refln_intensity_meas
 2 1 1 2.821 4
 1 2 1 2.808 6
 3 0 0 2.77 25
 -1 0 2 2.745 3
 -2 2 1 2.613 1
 3 1 0 2.6 3
 -1 1 2 2.587 1
 0 1 2 2.573 2
 1 0 2 2.473 8
 1 3 0 2.397 15
 3 0 1 2.314 100
 0 3 1 2.275 1
 0 2 2 2.208 52
 -3 2 1 2.18 2
 1 3 1 2.15 6
 2 3 0 2.131 3
 2 0 2 2.119 9
 4 0 0 2.089 9
 2 1 2 2.024 79
 3 2 1 1.974 1
 0 4 0 1.877 4
 0 0 3 1.823 75
 -4 2 1 1.81 3

# End of data set 531882

