##############################################################################
#                                                                            #
# Pd-Si            # Pd3Si                                         #  531884 #
#                                                                            #
##############################################################################
#                                                                            #
#                           Pearson's Crystal Data                           #
#      Crystal Structure Database for Inorganic Compounds (on DVD)           #
#                              Release 2022/23                               #
#                  Editors: Pierre Villars and Karin Cenzual                 #
#                                                                            #
#   Copyright (c) ASM International & Material Phases Data System (MPDS),    #
# Switzerland & National Institute for Materials Science (NIMS), Japan, 2022 #
#                   All rights reserved. Version 2022.07                     #
#                                                                            #
#   This copy of Pearson's Crystal Data is licensed to:                      #
#   University of Alberta, Chemistry Department, 1-5 Installations License         #
#                                                                            #
##############################################################################

data_531884
_audit_creation_date                     2023-07-09
_audit_creation_method
;
Pearson's Crystal Data browser
;
#_database_code_PCD                      531884
_database_code_PDF                       04-004-6276

# Entry summary

_chemical_formula_structural             'Pd~3~ Si'
_chemical_formula_sum                    'Pd3 Si'
_chemical_name_mineral                   ?
_chemical_compound_source                ?
_chemical_name_structure_type            Fe~3~C-b,oP16,62
_chemical_formula_weight                 347.3
_chemical_melting_point                  1318

# Bibliographic data

_publ_section_title                      'Equilibrium Silicides of Palladium'
_journal_coden_ASTM                      MTTABN
_journal_name_full                       'Metall. Trans. A'
_journal_year                            1981
_journal_volume                          12
_journal_page_first                      1455
_journal_page_last                       1460
_journal_language                        English
loop_
 _publ_author_name
 _publ_author_address
'Wysocki J.A.'
;
Hughes Aircraft Co.
Malibu
U.S.A. California
;
'Duwez P.E.'
;
California Institute of Technology (Caltech)
Pasadena
U.S.A. California
;

# Standardized crystallographic data

_cell_length_a                           5.735
_cell_length_b                           7.553
_cell_length_c                           5.26
_cell_angle_alpha                        90
_cell_angle_beta                         90
_cell_angle_gamma                        90
_cell_volume                             227.84
_cell_formula_units_Z                    4
_space_group_IT_number                   62
_space_group_name_H-M_alt                'P n m a'
loop_
 _space_group_symop_id
 _space_group_symop_operation_xyz
 1 'x, y, z'
 2 '1/2-x, -y, 1/2+z'
 3 '1/2-x, 1/2+y, 1/2+z'
 4 '-x, -y, -z'
 5 '-x, 1/2+y, -z'
 6 '1/2+x, 1/2-y, 1/2-z'
 7 '1/2+x, y, 1/2-z'
 8 'x, 1/2-y, z'

# Atomic positions taken from type-defining entry

loop_
 _atom_type_symbol
 Pd
 Si
loop_
 _atom_site_label
 _atom_site_type_symbol
 _atom_site_symmetry_multiplicity
 _atom_site_Wyckoff_symbol
 _atom_site_fract_x
 _atom_site_fract_y
 _atom_site_fract_z
 _atom_site_occupancy
 Pd1 Pd 8 d 0.1834 0.0689 0.1656 1
 Pd2 Pd 4 c 0.0388 0.25 0.6578 1
 Si1 Si 4 c 0.3764 0.25 0.4426 1


_exptl_crystal_colour                    ?
_exptl_crystal_density_meas              ?
_exptl_crystal_density_diffrn            10.12
_cell_measurement_temperature            ?
_cell_measurement_radiation              X-rays
_cell_measurement_reflns_used            ?
_diffrn_ambient_temperature              ?
_diffrn_measurement_device               'automatic diffractometer'
_diffrn_measurement_device_type          ?
_diffrn_radiation_type                   ?
_diffrn_reflns_number                    ?
_exptl_absorpt_coefficient_mu            ?
_exptl_absorpt_correction_type           ?
_computing_structure_solution            ?
_refine_ls_number_parameters             ?
_refine_ls_number_reflns                 ?
_refine_ls_R_factor_gt                   ?
_refine_ls_wR_factor_gt                  ?

# Published diffraction lines

loop_
 _refln_index_h
 _refln_index_k
 _refln_index_l
 _refln_d_spacing
 _refln_intensity_meas
 2 0 0 2.869 4
 1 2 1 2.709 37
 0 0 2 2.635 1
 2 0 1 2.524 37
 1 0 2 2.394 37
 2 2 0 2.289 90
 1 1 2 2.272 100
 0 2 2 2.163 45
 1 3 1 2.115 34
 2 2 1 2.098 33
 1 2 2 2.023 14
 2 0 2 1.942 5
 2 3 0 1.894 46
 0 4 0 1.881 6
 3 0 1 1.801 28
 1 4 0 1.796 1
 2 3 1 1.785 1
 3 1 1 1.747 1
 1 3 2 1.736 1
 2 2 2 1.727 1
 0 1 3 1.711 1
 1 4 1 1.7 3

# End of data set 531884

