##############################################################################
#                                                                            #
# Ga-Pt            # Pt5.33Ga2.67 ht                               #  531901 #
#                                                                            #
##############################################################################
#                                                                            #
#                           Pearson's Crystal Data                           #
#      Crystal Structure Database for Inorganic Compounds (on DVD)           #
#                              Release 2022/23                               #
#                  Editors: Pierre Villars and Karin Cenzual                 #
#                                                                            #
#   Copyright (c) ASM International & Material Phases Data System (MPDS),    #
# Switzerland & National Institute for Materials Science (NIMS), Japan, 2022 #
#                   All rights reserved. Version 2022.07                     #
#                                                                            #
#   This copy of Pearson's Crystal Data is licensed to:                      #
#   University of Alberta, Chemistry Department, 1-5 Installations License         #
#                                                                            #
##############################################################################

data_531901
_audit_creation_date                     2023-07-09
_audit_creation_method
;
Pearson's Crystal Data browser
;
#_database_code_PCD                      531901
_database_code_PDF                       04-004-6292

# Entry summary

_chemical_formula_structural             'Pt~5.33~ Ga~2.67~'
_chemical_formula_sum                    'Ga2.70 Pt5.30'
_chemical_name_mineral                   ?
_chemical_compound_source                ?
_chemical_name_structure_type            Rh~5~Ge~3~,oP16,55
_chemical_formula_weight                 1226.0

# Bibliographic data

_publ_section_title
'Zur Konstitution der Mischungen Platin-Gallium und Platin-Gallium-Germanium' 
_journal_coden_ASTM                      MTLLAF
_journal_name_full                       'Metall (Clausthal-Zellerfeld, Ger.)'
_journal_year                            1974
_journal_volume                          28
_journal_page_first                      1160
_journal_page_last                       1168
_journal_language                        German
loop_
 _publ_author_name
 _publ_author_address
'Chattopadhyay T.K.'
;
Max Planck Society (MPG)
Max Planck Institut (MPI) fur Metallforschung
Stuttgart
Germany
;
'Khalaff K.'
;
Max Planck Society (MPG)
Max Planck Institut (MPI) fur Metallforschung
Stuttgart
Germany
;
'Schubert K.'
;
Max Planck Society (MPG)
Max Planck Institut (MPI) fur Metallforschung
Stuttgart
Germany
;

# Standardized crystallographic data

_cell_length_a                           5.484
_cell_length_b                           10.86
_cell_length_c                           3.95
_cell_angle_alpha                        90
_cell_angle_beta                         90
_cell_angle_gamma                        90
_cell_volume                             235.25
_cell_formula_units_Z                    2
_space_group_IT_number                   55
_space_group_name_H-M_alt                'P b a m'
loop_
 _space_group_symop_id
 _space_group_symop_operation_xyz
 1 'x, y, z'
 2 '1/2-x, 1/2+y, -z'
 3 '1/2-x, 1/2+y, z'
 4 '-x, -y, -z'
 5 '-x, -y, z'
 6 '1/2+x, 1/2-y, -z'
 7 '1/2+x, 1/2-y, z'
 8 'x, y, -z'
loop_
 _atom_type_symbol
 Ga
 Pt
loop_
 _atom_site_label
 _atom_site_type_symbol
 _atom_site_symmetry_multiplicity
 _atom_site_Wyckoff_symbol
 _atom_site_fract_x
 _atom_site_fract_y
 _atom_site_fract_z
 _atom_site_occupancy
 Ga Ga 4 h 0.16 0.15 0.5 1
 Pt3 Pt 4 h 0.185 0.393 0.5 1
 Pt2 Pt 4 g 0.41 0.232 0 1
 Ga1 Ga 2 c 0 0.5 0 0.7
 Pt2 Pt 2 c 0 0.5 0 0.3
 Pt1 Pt 2 a 0 0 0 1


_exptl_crystal_colour                    ?
_exptl_crystal_density_meas              ?
_exptl_crystal_density_diffrn            17.31
_cell_measurement_temperature            ?
_cell_measurement_radiation              'X-rays, Cu Ka'
_cell_measurement_reflns_used            ?
_diffrn_ambient_temperature              ?
_diffrn_measurement_device               'Guinier film'
_diffrn_measurement_device_type          ?
_diffrn_radiation_type                   'X-rays, Cu Ka'
_diffrn_reflns_number                    ?
_exptl_absorpt_coefficient_mu            ?
_exptl_absorpt_correction_type           ?
_computing_structure_solution            'starting values from the literature'
_refine_ls_number_parameters             ?
_refine_ls_number_reflns                 ?
_refine_ls_R_factor_gt                   ?
_refine_ls_wR_factor_gt                  ?
_pd_proc_ls_proof_R_factor               ?
_pd_proc_ls_proof_wR_factor              ?
_refine_ls_R_I_factor                    ?

# Published diffraction lines

loop_
 _refln_index_h
 _refln_index_k
 _refln_index_l
 _refln_d_spacing
 _refln_intensity_meas
 2 0 0 5.384 1
 0 0 1 3.944 4
 2 1 0 3.85 6
 2 0 1 3.196 4
 1 1 1 3.074 4
 3 1 0 3.021 4
 2 1 1 2.762 6
 0 2 0 2.743 2
 4 0 0 2.719 3
 1 2 0 2.662 2
 4 1 0 2.437 5
 3 1 1 2.403 5
 0 2 1 2.256 7
 4 0 1 2.238 8
 1 2 1 2.209 7
 3 2 0 2.189 6
 2 2 1 2.08 4
 4 1 1 2.071 4
 0 0 2 1.976 7
 4 2 0 1.93 8
 1 3 0 1.8 3
 2 1 2 1.758 5
 4 2 1 1.733 4
 6 1 0 1.72 4
 5 2 0 1.702 5
 3 1 2 1.653 4
 4 0 2 1.598 2
 2 3 1 1.587 3
 6 1 1 1.577 3
 4 1 2 1.534 4
 6 2 0 1.51 3
 7 1 0 1.494 3
 3 2 2 1.466 6
 4 3 1 1.415 3
 7 1 1 1.397 4
 4 2 2 1.38 7
 0 4 0 1.371 4
 1 4 0 1.358 7
 1 3 2 1.332 4
 5 3 1 1.317 4
 2 3 2 1.303 3
 6 1 2 1.296 3
 5 2 2 1.289 5
 7 2 1 1.277 5
 2 4 1 1.259 3
 8 1 1 1.251 5
 3 4 1 1.219 7
 3 1 3 1.206 3
 0 2 3 1.184 7
 1 2 3 1.178 3
 4 4 1 1.168 7
 8 2 1 1.161 7

# End of data set 531901

