##############################################################################
#                                                                            #
# Ga-Ru            # RuGa2                                         #  532253 #
#                                                                            #
##############################################################################
#                                                                            #
#                           Pearson's Crystal Data                           #
#      Crystal Structure Database for Inorganic Compounds (on DVD)           #
#                              Release 2022/23                               #
#                  Editors: Pierre Villars and Karin Cenzual                 #
#                                                                            #
#   Copyright (c) ASM International & Material Phases Data System (MPDS),    #
# Switzerland & National Institute for Materials Science (NIMS), Japan, 2022 #
#                   All rights reserved. Version 2022.07                     #
#                                                                            #
#   This copy of Pearson's Crystal Data is licensed to:                      #
#   University of Alberta, Chemistry Department, 1-5 Installations License         #
#                                                                            #
##############################################################################

data_532253
_audit_creation_date                     2023-07-09
_audit_creation_method
;
Pearson's Crystal Data browser
;
#_database_code_PCD                      532253
_database_code_PDF                       04-004-6597

# Entry summary

_chemical_formula_structural             'Ru Ga~2~'
_chemical_formula_sum                    'Ga2 Ru'
_chemical_name_mineral                   ?
_chemical_compound_source                ?
_chemical_name_structure_type            TiSi~2~,oF24,70
_chemical_formula_weight                 240.5

# Bibliographic data

_publ_section_title                      'Semiconducting behaviour of RuGa~2~'
_journal_coden_ASTM                      MRBUAC
_journal_name_full                       'Mater. Res. Bull.'
_journal_year                            1984
_journal_volume                          19
_journal_page_first                      1177
_journal_page_last                       1180
_journal_language                        English
loop_
 _publ_author_name
 _publ_author_address
'Evers J.'
;
Munich Ludwig Maximilian University (LMU)
Institut fur Anorganische Chemie
Munich
Germany
;
'Dehlinger G.'
;
Munich Ludwig Maximilian University (LMU)
Institut fur Anorganische Chemie
Munich
Germany
;
'Meyer H.'
;
W.C. Heraeus GmbH
Metall-Laboratorium
Hanau
Germany
;

# Standardized crystallographic data

_cell_length_a                           4.74
_cell_length_b                           8.18
_cell_length_c                           8.7
_cell_angle_alpha                        90
_cell_angle_beta                         90
_cell_angle_gamma                        90
_cell_volume                             337.33
_cell_formula_units_Z                    8
_space_group_IT_number                   70
_space_group_name_H-M_alt                'F d d d (origin choice 2)'
loop_
 _space_group_symop_id
 _space_group_symop_operation_xyz
 1 'x, y, z'
 2 '1/4-x, 1/4-y, z'
 3 '1/4-x, y, 1/4-z'
 4 '-x, -y, -z'
 5 '-x, -1/4+y, -1/4+z'
 6 'x, 1/4-y, 1/4-z'
 7 '-1/4+x, -y, -1/4+z'
 8 '-1/4+x, -1/4+y, -z'
 9 'x, 1/2+y, 1/2+z'
 10 '1/4-x, 3/4-y, 1/2+z'
 11 '1/4-x, 1/2+y, 3/4-z'
 12 '-x, 1/2-y, 1/2-z'
 13 '-x, 1/4+y, 1/4+z'
 14 'x, 3/4-y, 3/4-z'
 15 '-1/4+x, 1/2-y, 1/4+z'
 16 '-1/4+x, 1/4+y, 1/2-z'
 17 '1/2+x, y, 1/2+z'
 18 '3/4-x, 1/4-y, 1/2+z'
 19 '3/4-x, y, 3/4-z'
 20 '1/2-x, -y, 1/2-z'
 21 '1/2-x, -1/4+y, 1/4+z'
 22 '1/2+x, 1/4-y, 3/4-z'
 23 '1/4+x, -y, 1/4+z'
 24 '1/4+x, -1/4+y, 1/2-z'
 25 '1/2+x, 1/2+y, z'
 26 '3/4-x, 3/4-y, z'
 27 '3/4-x, 1/2+y, 1/4-z'
 28 '1/2-x, 1/2-y, -z'
 29 '1/2-x, 1/4+y, -1/4+z'
 30 '1/2+x, 3/4-y, 1/4-z'
 31 '1/4+x, 1/2-y, -1/4+z'
 32 '1/4+x, 1/4+y, -z'

# Atomic positions taken from type-defining entry

loop_
 _atom_type_symbol
 Ga
 Ru
loop_
 _atom_site_label
 _atom_site_type_symbol
 _atom_site_symmetry_multiplicity
 _atom_site_Wyckoff_symbol
 _atom_site_fract_x
 _atom_site_fract_y
 _atom_site_fract_z
 _atom_site_occupancy
 Ga1 Ga 16 f 0.125 0.4615 0.125 1
 Ru1 Ru 8 a 0.125 0.125 0.125 1


_exptl_crystal_colour                    ?
_exptl_crystal_density_meas              ?
_exptl_crystal_density_diffrn            9.47
_cell_measurement_temperature            ?
_cell_measurement_radiation              'X-rays, Cu Ka'
_cell_measurement_reflns_used            ?
_diffrn_ambient_temperature              ?
_diffrn_measurement_device               'Debye-Scherrer film'
_diffrn_measurement_device_type          ?
_diffrn_radiation_type                   ?
_diffrn_reflns_number                    ?
_exptl_absorpt_coefficient_mu            ?
_exptl_absorpt_correction_type           ?
_computing_structure_solution            ?
_refine_ls_number_parameters             ?
_refine_ls_number_reflns                 ?
_refine_ls_R_factor_gt                   ?
_refine_ls_wR_factor_gt                  ?

# End of data set 532253

