##############################################################################
#                                                                            #
# Ni-Sb            # Ni3Sb rt                                      #  532395 #
#                                                                            #
##############################################################################
#                                                                            #
#                           Pearson's Crystal Data                           #
#      Crystal Structure Database for Inorganic Compounds (on DVD)           #
#                              Release 2022/23                               #
#                  Editors: Pierre Villars and Karin Cenzual                 #
#                                                                            #
#   Copyright (c) ASM International & Material Phases Data System (MPDS),    #
# Switzerland & National Institute for Materials Science (NIMS), Japan, 2022 #
#                   All rights reserved. Version 2022.07                     #
#                                                                            #
#   This copy of Pearson's Crystal Data is licensed to:                      #
#   University of Alberta, Chemistry Department, 1-5 Installations License         #
#                                                                            #
##############################################################################

data_532395
_audit_creation_date                     2023-07-09
_audit_creation_method
;
Pearson's Crystal Data browser
;
#_database_code_PCD                      532395
_database_code_PDF                       04-004-6716

# Entry summary

_chemical_formula_structural             'Ni~3~ Sb'
_chemical_formula_sum                    'Ni3 Sb'
_chemical_name_mineral                   ?
_chemical_compound_source                ?
_chemical_name_structure_type            Cu~3~Ti,oP8,59
_chemical_formula_weight                 297.9

# Bibliographic data

_publ_section_title
;
Contribution a l'etude des systemes Ni-Sb et Co-Ni-Sb par diffraction X
;
_journal_coden_ASTM                      MRBUAC
_journal_name_full                       'Mater. Res. Bull.'
_journal_year                            1972
_journal_volume                          7
_journal_page_first                      301
_journal_page_last                       308
_journal_language                        French
loop_
 _publ_author_name
 _publ_author_address
'Naud J.'
;
Louvain Catholic University (UCL)
Laboratoire de Chimie Minerale
Leuven-Heverlee
Belgium
;
'Parijs D.'
;
Louvain Catholic University (UCL)
Laboratoire de Chimie Minerale
Leuven-Heverlee
Belgium
;

# Standardized crystallographic data

_cell_length_a                           4.277
_cell_length_b                           5.317
_cell_length_c                           4.519
_cell_angle_alpha                        90
_cell_angle_beta                         90
_cell_angle_gamma                        90
_cell_volume                             102.77
_cell_formula_units_Z                    2
_space_group_IT_number                   59
_space_group_name_H-M_alt                'P m m n (origin choice 2)'
loop_
 _space_group_symop_id
 _space_group_symop_operation_xyz
 1 'x, y, z'
 2 '1/2-x, 1/2-y, z'
 3 '1/2-x, y, z'
 4 '-x, -y, -z'
 5 '-x, 1/2+y, -z'
 6 '1/2+x, -y, -z'
 7 '1/2+x, 1/2+y, -z'
 8 'x, 1/2-y, z'

# Atomic positions taken from type-defining entry

loop_
 _atom_type_symbol
 Ni
 Sb
loop_
 _atom_site_label
 _atom_site_type_symbol
 _atom_site_symmetry_multiplicity
 _atom_site_Wyckoff_symbol
 _atom_site_fract_x
 _atom_site_fract_y
 _atom_site_fract_z
 _atom_site_occupancy
 Ni1 Ni 4 e 0.25 0.000 0.655 1
 Sb1 Sb 2 b 0.25 0.75 0.155 1
 Ni2 Ni 2 a 0.25 0.25 0.155 1


_exptl_crystal_colour                    ?
_exptl_crystal_density_meas              ?
_exptl_crystal_density_diffrn            9.63
_cell_measurement_temperature            ?
_cell_measurement_radiation              'X-rays, Cu Ka'
_cell_measurement_reflns_used            ?
_diffrn_ambient_temperature              ?
_diffrn_measurement_device               'Debye-Scherrer film'
_diffrn_measurement_device_type          ?
_diffrn_radiation_type                   ?
_diffrn_reflns_number                    ?
_exptl_absorpt_coefficient_mu            ?
_exptl_absorpt_correction_type           ?
_computing_structure_solution            ?
_refine_ls_number_parameters             ?
_refine_ls_number_reflns                 ?
_refine_ls_R_factor_gt                   ?
_refine_ls_wR_factor_gt                  ?

# Published diffraction lines

loop_
 _refln_index_h
 _refln_index_k
 _refln_index_l
 _refln_d_spacing
 _refln_intensity_meas
 1 0 1 3.433 15
 1 1 0 3.328 17
 0 1 1 3.102 13
 2 0 0 2.655 9
 2 0 1 2.289 28
 2 1 0 2.257 35
 0 2 0 2.14 60
 2 1 1 2.019 100
 0 1 2 1.996 60
 2 2 1 1.56 15
 0 2 2 1.552 9
 4 0 0 1.329 11
 2 0 3 1.31 18
 0 3 2 1.21 15
 4 2 0 1.129 9
 2 2 3 1.118 11
 4 1 2 1.107 9
 0 1 4 1.092 5
 1 1 4 1.071 4

# End of data set 532395

