##############################################################################
#                                                                            #
# Fe-Ga            # FeGa3                                         #  533840 #
#                                                                            #
##############################################################################
#                                                                            #
#                           Pearson's Crystal Data                           #
#      Crystal Structure Database for Inorganic Compounds (on DVD)           #
#                              Release 2022/23                               #
#                  Editors: Pierre Villars and Karin Cenzual                 #
#                                                                            #
#   Copyright (c) ASM International & Material Phases Data System (MPDS),    #
# Switzerland & National Institute for Materials Science (NIMS), Japan, 2022 #
#                   All rights reserved. Version 2022.07                     #
#                                                                            #
#   This copy of Pearson's Crystal Data is licensed to:                      #
#   University of Alberta, Chemistry Department, 1-5 Installations License         #
#                                                                            #
##############################################################################

data_533840
_audit_creation_date                     2023-07-09
_audit_creation_method
;
Pearson's Crystal Data browser
;
#_database_code_PCD                      533840
_database_code_PDF                       04-004-8039

# Entry summary

_chemical_formula_structural             'Fe Ga~3~'
_chemical_formula_sum                    'Fe Ga3'
_chemical_name_mineral                   ?
_chemical_compound_source                ?
_chemical_name_structure_type            IrIn~3~,tP16,136
_chemical_formula_weight                 265.0
_chemical_melting_point                  1095

# Bibliographic data

_publ_section_title                      'The system iron-gallium'
_journal_coden_ASTM                      PRLAAZ
_journal_name_full                       'Proc. R. Soc. London, Ser. A'
_journal_year                            1965
_journal_volume                          286
_journal_page_first                      141
_journal_page_last                       157
_journal_language                        English
loop_
 _publ_author_name
 _publ_author_address
'Dasarathy C.'
;
Oxford University
Department of Metallurgy
Oxford
United Kingdom
;
'Hume Rothery W.'
;
Oxford University
Department of Metallurgy
Oxford
United Kingdom
;

# Standardized crystallographic data

_cell_length_a                           6.26
_cell_length_b                           6.26
_cell_length_c                           6.58
_cell_angle_alpha                        90
_cell_angle_beta                         90
_cell_angle_gamma                        90
_cell_volume                             257.85
_cell_formula_units_Z                    4
_space_group_IT_number                   136
_space_group_name_H-M_alt                'P 42/m n m'
loop_
 _space_group_symop_id
 _space_group_symop_operation_xyz
 1 'x, y, z'
 2 '1/2-x, 1/2+y, 1/2-z'
 3 '1/2-x, 1/2+y, 1/2+z'
 4 '-x, -y, -z'
 5 '-x, -y, z'
 6 '1/2-y, 1/2+x, 1/2-z'
 7 '1/2-y, 1/2+x, 1/2+z'
 8 '-y, -x, -z'
 9 '-y, -x, z'
 10 '1/2+x, 1/2-y, 1/2-z'
 11 '1/2+x, 1/2-y, 1/2+z'
 12 'x, y, -z'
 13 '1/2+y, 1/2-x, 1/2-z'
 14 '1/2+y, 1/2-x, 1/2+z'
 15 'y, x, -z'
 16 'y, x, z'

# Atomic positions taken from type-defining entry

loop_
 _atom_type_symbol
 Ga
 Fe
loop_
 _atom_site_label
 _atom_site_type_symbol
 _atom_site_symmetry_multiplicity
 _atom_site_Wyckoff_symbol
 _atom_site_fract_x
 _atom_site_fract_y
 _atom_site_fract_z
 _atom_site_occupancy
 Ga1 Ga 8 j 0.347 0.347 0.25 1
 Fe1 Fe 4 f 0.147 0.147 0 1
 Ga2 Ga 4 c 0 0.5 0 1


_exptl_crystal_colour                    ?
_exptl_crystal_density_meas              ?
_exptl_crystal_density_diffrn            6.83
_cell_measurement_temperature            293
_cell_measurement_radiation              'X-rays, Co Ka1'
_cell_measurement_wavelength             1.78892
_pd_proc_wavelength                      1.78892
_cell_measurement_reflns_used            ?
_diffrn_ambient_temperature              ?
_diffrn_measurement_device               'Unicam film'
_diffrn_measurement_device_type          ?
_diffrn_radiation_type                   ?
_diffrn_reflns_number                    ?
_exptl_absorpt_coefficient_mu            ?
_exptl_absorpt_correction_type           ?
_computing_structure_solution            ?
_refine_ls_number_parameters             ?
_refine_ls_number_reflns                 ?
_refine_ls_R_factor_gt                   ?
_refine_ls_wR_factor_gt                  ?

# End of data set 533840

