##############################################################################
#                                                                            #
# In-Ni            # Ni3In7                                        #  534753 #
#                                                                            #
##############################################################################
#                                                                            #
#                           Pearson's Crystal Data                           #
#      Crystal Structure Database for Inorganic Compounds (on DVD)           #
#                              Release 2022/23                               #
#                  Editors: Pierre Villars and Karin Cenzual                 #
#                                                                            #
#   Copyright (c) ASM International & Material Phases Data System (MPDS),    #
# Switzerland & National Institute for Materials Science (NIMS), Japan, 2022 #
#                   All rights reserved. Version 2022.07                     #
#                                                                            #
#   This copy of Pearson's Crystal Data is licensed to:                      #
#   University of Alberta, Chemistry Department, 1-5 Installations License         #
#                                                                            #
##############################################################################

data_534753
_audit_creation_date                     2023-07-09
_audit_creation_method
;
Pearson's Crystal Data browser
;
#_database_code_PCD                      534753
_database_code_PDF                       04-004-8807

# Entry summary

_chemical_formula_structural             'Ni~3.6~ In~9.4~'
_chemical_formula_sum                    'In9.4 Ni3.6'
_chemical_name_mineral                   ?
_chemical_compound_source                ?
_chemical_name_structure_type            Cu~5~Zn~8~,cI52,217
_chemical_formula_weight                 1290.6

# Bibliographic data

_publ_section_title
;
Kristallchemie des In und Ga in Legierungen mit einigen Ubergangselementen (Ni, Pd, Pt, Cu, Ag und Au)
;
_journal_coden_ASTM                      ZENAAU
_journal_name_full                       'Z. Naturforsch. A'
_journal_year                            1947
_journal_volume                          2
_journal_page_first                      177
_journal_page_last                       183
_journal_language                        German
loop_
 _publ_author_name
 _publ_author_address
'Hellner E.'
;
Marburg Philipps University
Institut fur Mineralogie, Petrologie und Kristallographie
Marburg
Germany
;
'Laves F.'
;
Marburg Philipps University
Institut fur Mineralogie, Petrologie und Kristallographie
Marburg
Germany
;

# Standardized crystallographic data

_cell_length_a                           9.18
_cell_length_b                           9.18
_cell_length_c                           9.18
_cell_angle_alpha                        90
_cell_angle_beta                         90
_cell_angle_gamma                        90
_cell_volume                             773.62
_cell_formula_units_Z                    4
_space_group_IT_number                   217
_space_group_name_H-M_alt                'I -4 3 m'
loop_
 _space_group_symop_id
 _space_group_symop_operation_xyz
 1 'x, y, z'
 2 '-x, -y, z'
 3 '-x, -z, y'
 4 '-x, y, -z'
 5 '-x, z, -y'
 6 '-y, -x, z'
 7 '-y, -z, x'
 8 '-y, x, -z'
 9 '-y, z, -x'
 10 '-z, -x, y'
 11 '-z, -y, x'
 12 '-z, x, -y'
 13 '-z, y, -x'
 14 'x, -y, -z'
 15 'x, -z, -y'
 16 'x, z, y'
 17 'y, -x, -z'
 18 'y, -z, -x'
 19 'y, x, z'
 20 'y, z, x'
 21 'z, -x, -y'
 22 'z, -y, -x'
 23 'z, x, y'
 24 'z, y, x'
 25 '1/2+x, 1/2+y, 1/2+z'
 26 '1/2-x, 1/2-y, 1/2+z'
 27 '1/2-x, 1/2-z, 1/2+y'
 28 '1/2-x, 1/2+y, 1/2-z'
 29 '1/2-x, 1/2+z, 1/2-y'
 30 '1/2-y, 1/2-x, 1/2+z'
 31 '1/2-y, 1/2-z, 1/2+x'
 32 '1/2-y, 1/2+x, 1/2-z'
 33 '1/2-y, 1/2+z, 1/2-x'
 34 '1/2-z, 1/2-x, 1/2+y'
 35 '1/2-z, 1/2-y, 1/2+x'
 36 '1/2-z, 1/2+x, 1/2-y'
 37 '1/2-z, 1/2+y, 1/2-x'
 38 '1/2+x, 1/2-y, 1/2-z'
 39 '1/2+x, 1/2-z, 1/2-y'
 40 '1/2+x, 1/2+z, 1/2+y'
 41 '1/2+y, 1/2-x, 1/2-z'
 42 '1/2+y, 1/2-z, 1/2-x'
 43 '1/2+y, 1/2+x, 1/2+z'
 44 '1/2+y, 1/2+z, 1/2+x'
 45 '1/2+z, 1/2-x, 1/2-y'
 46 '1/2+z, 1/2-y, 1/2-x'
 47 '1/2+z, 1/2+x, 1/2+y'
 48 '1/2+z, 1/2+y, 1/2+x'

# Atomic positions taken from type-defining entry

loop_
 _atom_type_symbol
 In
 Ni
loop_
 _atom_site_label
 _atom_site_type_symbol
 _atom_site_symmetry_multiplicity
 _atom_site_Wyckoff_symbol
 _atom_site_fract_x
 _atom_site_fract_y
 _atom_site_fract_z
 _atom_site_occupancy
 In1 In 24 g 0.3128 0.3128 0.0366 1
 Ni1A Ni 12 e 0.3558 0 0 0.720
 In1B In 12 e 0.3558 0 0 0.280
 In2 In 8 c 0.1089 0.1089 0.1089 1
 Ni2A Ni 8 c 0.328 0.328 0.328 0.720
 In2B In 8 c 0.328 0.328 0.328 0.280


_exptl_crystal_colour                    ?
_exptl_crystal_density_meas              ?
_exptl_crystal_density_diffrn            11.08
_cell_measurement_temperature            ?
_cell_measurement_radiation              X-rays
_cell_measurement_reflns_used            ?
_diffrn_ambient_temperature              ?
_diffrn_measurement_device               film
_diffrn_measurement_device_type          ?
_diffrn_radiation_type                   ?
_diffrn_reflns_number                    ?
_exptl_absorpt_coefficient_mu            ?
_exptl_absorpt_correction_type           ?
_computing_structure_solution            ?
_refine_ls_number_parameters             ?
_refine_ls_number_reflns                 ?
_refine_ls_R_factor_gt                   ?
_refine_ls_wR_factor_gt                  ?

# End of data set 534753

