##############################################################################
#                                                                            #
# In-Pt            # Pt5.5In2.5 rt                                 #  534837 #
#                                                                            #
##############################################################################
#                                                                            #
#                           Pearson's Crystal Data                           #
#      Crystal Structure Database for Inorganic Compounds (on DVD)           #
#                              Release 2022/23                               #
#                  Editors: Pierre Villars and Karin Cenzual                 #
#                                                                            #
#   Copyright (c) ASM International & Material Phases Data System (MPDS),    #
# Switzerland & National Institute for Materials Science (NIMS), Japan, 2022 #
#                   All rights reserved. Version 2022.07                     #
#                                                                            #
#   This copy of Pearson's Crystal Data is licensed to:                      #
#   University of Alberta, Chemistry Department, 1-5 Installations License         #
#                                                                            #
##############################################################################

data_534837
_audit_creation_date                     2023-07-09
_audit_creation_method
;
Pearson's Crystal Data browser
;
#_database_code_PCD                      534837
_database_code_PDF                       04-004-8875

# Entry summary

_chemical_formula_structural             'Pt~5.33~ In~2.67~'
_chemical_formula_sum                    'In2.67 Pt5.33'
_chemical_name_mineral                   ?
_chemical_compound_source                ?
_chemical_name_structure_type            Pt~5~Ga~3~,oS16,65
_chemical_formula_weight                 1346.4
_chemical_melting_point                  1663

# Bibliographic data

_publ_section_title
'Constitution and structure of platinum-indium alloys'                        
_journal_coden_ASTM                      TIIMA3
_journal_name_full                       'Trans. Indian Inst. Met.'
_journal_year                            1972
_journal_volume                          25
_journal_page_first                      100
_journal_page_last                       102
_journal_language                        English
loop_
 _publ_author_name
 _publ_author_address
'Jain K.C.'
;
Banaras Hindu University (Central Hindu College)
Department of Metallurgy
Varanasi / Uttar Pradesh
India
;
'Bhan S.'
;
Banaras Hindu University (Central Hindu College)
Department of Metallurgy
Varanasi / Uttar Pradesh
India
;

# Standardized crystallographic data

_cell_length_a                           7.81
_cell_length_b                           8.18
_cell_length_c                           4.08
_cell_angle_alpha                        90
_cell_angle_beta                         90
_cell_angle_gamma                        90
_cell_volume                             260.65
_cell_formula_units_Z                    2
_space_group_IT_number                   65
_space_group_name_H-M_alt                'C m m m'
loop_
 _space_group_symop_id
 _space_group_symop_operation_xyz
 1 'x, y, z'
 2 '-x, -y, -z'
 3 '-x, -y, z'
 4 '-x, y, -z'
 5 '-x, y, z'
 6 'x, -y, -z'
 7 'x, -y, z'
 8 'x, y, -z'
 9 '1/2+x, 1/2+y, z'
 10 '1/2-x, 1/2-y, -z'
 11 '1/2-x, 1/2-y, z'
 12 '1/2-x, 1/2+y, -z'
 13 '1/2-x, 1/2+y, z'
 14 '1/2+x, 1/2-y, -z'
 15 '1/2+x, 1/2-y, z'
 16 '1/2+x, 1/2+y, -z'

# Atomic positions taken from type-defining entry

loop_
 _atom_type_symbol
 In
 Pt
loop_
 _atom_site_label
 _atom_site_type_symbol
 _atom_site_symmetry_multiplicity
 _atom_site_Wyckoff_symbol
 _atom_site_fract_x
 _atom_site_fract_y
 _atom_site_fract_z
 _atom_site_occupancy
 In1A In 4 j 0 0.25 0.5 0.900
 Pt1B Pt 4 j 0 0.25 0.5 0.100
 Pt1 Pt 4 h 0.225 0 0.5 1
 Pt2 Pt 4 e 0.25 0.25 0 1
 Pt3 Pt 2 b 0.5 0 0 1
 In2A In 2 a 0 0 0 0.900
 Pt2B Pt 2 a 0 0 0 0.100


_exptl_crystal_colour                    ?
_exptl_crystal_density_meas              ?
_exptl_crystal_density_diffrn            17.16
_cell_measurement_temperature            ?
_cell_measurement_radiation              'X-rays, Cu Ka'
_cell_measurement_reflns_used            ?
_diffrn_ambient_temperature              ?
_diffrn_measurement_device               'Debye-Scherrer film'
_diffrn_measurement_device_type          ?
_diffrn_radiation_type                   ?
_diffrn_reflns_number                    ?
_exptl_absorpt_coefficient_mu            ?
_exptl_absorpt_correction_type           ?
_computing_structure_solution            ?
_refine_ls_number_parameters             ?
_refine_ls_number_reflns                 ?
_refine_ls_R_factor_gt                   ?
_refine_ls_wR_factor_gt                  ?

# End of data set 534837

