##############################################################################
#                                                                            #
# Os-Sb            # OsSb2                                         #  535131 #
#                                                                            #
##############################################################################
#                                                                            #
#                           Pearson's Crystal Data                           #
#      Crystal Structure Database for Inorganic Compounds (on DVD)           #
#                              Release 2022/23                               #
#                  Editors: Pierre Villars and Karin Cenzual                 #
#                                                                            #
#   Copyright (c) ASM International & Material Phases Data System (MPDS),    #
# Switzerland & National Institute for Materials Science (NIMS), Japan, 2022 #
#                   All rights reserved. Version 2022.07                     #
#                                                                            #
#   This copy of Pearson's Crystal Data is licensed to:                      #
#   University of Alberta, Chemistry Department, 1-5 Installations License         #
#                                                                            #
##############################################################################

data_535131
_audit_creation_date                     2023-07-09
_audit_creation_method
;
Pearson's Crystal Data browser
;
#_database_code_PCD                      535131
_database_code_PDF                       04-004-9140

# Entry summary

_chemical_formula_structural             'Os Sb~2~'
_chemical_formula_sum                    'Os Sb2'
_chemical_name_mineral                   ?
_chemical_compound_source                ?
_chemical_name_structure_type            FeAs~2~,oP6,58
_chemical_formula_weight                 433.7

# Bibliographic data

_publ_section_title
'Crystal structures in the OsTe~2-x~Sb~x~ system'                             
_journal_coden_ASTM                      JINCAO
_journal_name_full                       'J. Inorg. Nucl. Chem.'
_journal_year                            1961
_journal_volume                          22
_journal_page_first                      13
_journal_page_last                       18
_journal_language                        English
loop_
 _publ_author_name
 _publ_author_address
'Johnston W.D.'
;
Westinghouse Electric Co. LLC
Pittsburgh
U.S.A. Pennsylvania
;

# Standardized crystallographic data

_cell_length_a                           5.937
_cell_length_b                           6.684
_cell_length_c                           3.21
_cell_angle_alpha                        90
_cell_angle_beta                         90
_cell_angle_gamma                        90
_cell_volume                             127.38
_cell_formula_units_Z                    2
_space_group_IT_number                   58
_space_group_name_H-M_alt                'P n n m'
loop_
 _space_group_symop_id
 _space_group_symop_operation_xyz
 1 'x, y, z'
 2 '1/2-x, 1/2+y, 1/2-z'
 3 '1/2-x, 1/2+y, 1/2+z'
 4 '-x, -y, -z'
 5 '-x, -y, z'
 6 '1/2+x, 1/2-y, 1/2-z'
 7 '1/2+x, 1/2-y, 1/2+z'
 8 'x, y, -z'

# Atomic positions taken from type-defining entry

loop_
 _atom_type_symbol
 Sb
 Os
loop_
 _atom_site_label
 _atom_site_type_symbol
 _atom_site_symmetry_multiplicity
 _atom_site_Wyckoff_symbol
 _atom_site_fract_x
 _atom_site_fract_y
 _atom_site_fract_z
 _atom_site_occupancy
 Sb1 Sb 4 g 0.1760 0.3625 0 1
 Os1 Os 2 a 0 0 0 1


_exptl_crystal_colour                    ?
_exptl_crystal_density_meas              11.12(2)
_exptl_crystal_density_diffrn            11.31
_cell_measurement_temperature            ?
_cell_measurement_radiation              'X-rays, Co Ka'
_cell_measurement_wavelength             1.79021
_pd_proc_wavelength                      1.79021
_cell_measurement_reflns_used            ?
_diffrn_ambient_temperature              ?
_diffrn_measurement_device               film
_diffrn_measurement_device_type          ?
_diffrn_radiation_type                   ?
_diffrn_reflns_number                    ?
_exptl_absorpt_coefficient_mu            ?
_exptl_absorpt_correction_type           ?
_computing_structure_solution            ?
_refine_ls_number_parameters             ?
_refine_ls_number_reflns                 ?
_refine_ls_R_factor_gt                   ?
_refine_ls_wR_factor_gt                  ?

# Published diffraction lines

loop_
 _refln_index_h
 _refln_index_k
 _refln_index_l
 _refln_d_spacing
 _refln_intensity_meas
 1 1 0 4.437 7
 2 0 0 3.345 3
 2 1 0 2.895 8
 0 1 1 2.808 8
 1 2 0 2.701 5
 1 1 1 2.588 7
 2 2 0 2.208 7
 2 1 1 2.148 5
 3 1 0 2.077 9
 1 2 1 2.064 9
 1 3 0 1.892 5
 3 0 1 1.824 8
 3 2 0 1.779 1
 3 1 1 1.745 2
 0 0 2 1.602 5
 2 3 1 1.502 5
 4 2 0 1.453 5
 1 4 0 1.446 2
 2 1 2 1.404 3
 1 2 2 1.379 2
 2 4 0 1.354 2
 1 4 1 1.319 5
 2 2 2 1.299 5
 4 3 0 1.274 5
 2 4 1 1.248 5
 5 0 1 1.233 2
 1 3 2 1.224 5
 5 1 1 1.207 3
 4 3 1 1.185 7
 6 0 0 1.112 7
 1 5 1 1.097 1
 4 2 2 1.078 5
 2 5 1 1.056 2
 0 1 3 1.053 2
 5 3 1 1.047 3
 1 1 3 1.04 1
 6 1 1 1.036 5
 5 1 2 1.012 2
 2 1 3 1.004 1
 1 2 3 0.995 5
 0 6 0 0.989 3
 1 6 0 0.978 1
 5 2 2 0.971 3
 3 0 3 0.964 5
 3 1 3 0.952 1
 5 4 1 0.949 3
 2 5 2 0.918 3
 6 0 2 0.915 5
 4 4 2 0.913 5
 2 6 1 0.91 1
 2 3 3 0.906 5

# End of data set 535131

