##############################################################################
#                                                                            #
# Rh-Sb            # Rh2Sb                                         #  535226 #
#                                                                            #
##############################################################################
#                                                                            #
#                           Pearson's Crystal Data                           #
#      Crystal Structure Database for Inorganic Compounds (on DVD)           #
#                              Release 2022/23                               #
#                  Editors: Pierre Villars and Karin Cenzual                 #
#                                                                            #
#   Copyright (c) ASM International & Material Phases Data System (MPDS),    #
# Switzerland & National Institute for Materials Science (NIMS), Japan, 2022 #
#                   All rights reserved. Version 2022.07                     #
#                                                                            #
#   This copy of Pearson's Crystal Data is licensed to:                      #
#   University of Alberta, Chemistry Department, 1-5 Installations License         #
#                                                                            #
##############################################################################

data_535226
_audit_creation_date                     2023-07-09
_audit_creation_method
;
Pearson's Crystal Data browser
;
#_database_code_PCD                      535226
_database_code_PDF                       04-004-9230

# Entry summary

_chemical_formula_structural             'Rh~2~ Sb'
_chemical_formula_sum                    'Rh2 Sb'
_chemical_name_mineral                   ?
_chemical_compound_source                ?
_chemical_name_structure_type            Co~2~Si-b,oP12,62
_chemical_formula_weight                 327.6

# Bibliographic data

_publ_section_title
'Rh~2~Sb with (anti-)PbCl~2~-Type Structure'                                  
_journal_coden_ASTM                      ZNBSEN
_journal_name_full                       'Z. Naturforsch., B: J. Chem. Sci.'
_journal_year                            1990
_journal_volume                          45
_journal_page_first                      947
_journal_page_last                       951
_journal_language                        German
loop_
 _publ_author_name
 _publ_author_address
'Jeitschko W.'
;
Munster University (WWU)
Institut fur Anorganische Chemie
Munster
Germany
;
'Altmeyer R.O.'
;
Munster University (WWU)
Institut fur Anorganische Chemie
Munster
Germany
;

# Standardized crystallographic data

_cell_length_a                           5.721
_cell_length_b                           4.171
_cell_length_c                           7.928
_cell_angle_alpha                        90
_cell_angle_beta                         90
_cell_angle_gamma                        90
_cell_volume                             189.18
_cell_formula_units_Z                    4
_space_group_IT_number                   62
_space_group_name_H-M_alt                'P n m a'
loop_
 _space_group_symop_id
 _space_group_symop_operation_xyz
 1 'x, y, z'
 2 '1/2-x, -y, 1/2+z'
 3 '1/2-x, 1/2+y, 1/2+z'
 4 '-x, -y, -z'
 5 '-x, 1/2+y, -z'
 6 '1/2+x, 1/2-y, 1/2-z'
 7 '1/2+x, y, 1/2-z'
 8 'x, 1/2-y, z'
loop_
 _atom_type_symbol
 Rh
 Sb
loop_
 _atom_site_label
 _atom_site_type_symbol
 _atom_site_symmetry_multiplicity
 _atom_site_Wyckoff_symbol
 _atom_site_fract_x
 _atom_site_fract_y
 _atom_site_fract_z
 _atom_site_occupancy
 Rh(2) Rh 4 c 0.0409 0.25 0.7032 1
 Rh(1) Rh 4 c 0.1616 0.25 0.06677 1
 Sb Sb 4 c 0.2139 0.25 0.3921 1


_exptl_crystal_colour                    ?
_exptl_crystal_density_meas              ?
_exptl_crystal_density_diffrn            11.50
_cell_measurement_temperature            ?
_cell_measurement_radiation              'X-rays, Mo Ka'
_cell_measurement_reflns_used            ?
_diffrn_ambient_temperature              ?
_diffrn_measurement_device               'automatic diffractometer'
_diffrn_measurement_device_type          ?
_diffrn_radiation_type                   'X-rays, Mo Ka'
_diffrn_reflns_number                    1742
_exptl_absorpt_coefficient_mu            ?
_exptl_absorpt_correction_type           ?
_computing_structure_solution            'starting values from the literature'
_refine_ls_number_parameters             ?
_refine_ls_number_reflns                 411
_refine_ls_R_factor_gt                   0.059
_refine_ls_wR_factor_gt                  0.066

# Published diffraction lines

loop_
 _refln_index_h
 _refln_index_k
 _refln_index_l
 _refln_d_spacing
 _refln_intensity_meas
 0 1 1 3.701 2
 1 0 2 3.263 2
 1 1 1 3.104 2
 2 0 0 2.863 2
 2 0 1 2.69 2
 1 1 2 2.57 5
 1 0 3 2.401 5
 2 1 0 2.361 8
 2 0 2 2.321 5
 2 1 1 2.263 8
 0 1 3 2.234 8
 0 2 0 2.087 7
 1 1 3 2.08 5
 2 1 2 2.029 2
 0 0 4 1.985 2
 2 0 3 1.942 5
 3 0 1 1.855 2
 2 1 3 1.76 3
 3 0 2 1.719 5
 1 1 4 1.708 2
 3 1 1 1.694 2
 2 2 0 1.685 2
 2 2 1 1.648 2
 2 0 4 1.629 3
 3 1 2 1.589 2
 1 2 3 1.574 3
 2 2 2 1.551 5
 1 0 5 1.527 2
 2 1 4 1.517 2
 0 2 4 1.436 2
 2 2 3 1.42 5
 4 0 1 1.407 3

# End of data set 535226

