##############################################################################
#                                                                            #
# Co-Ga-La         # LaCo2Ga                                       # 1000445 #
#                                                                            #
##############################################################################
#                                                                            #
#                           Pearson's Crystal Data                           #
#      Crystal Structure Database for Inorganic Compounds (on DVD)           #
#                              Release 2023/24                               #
#                  Editors: Pierre Villars and Karin Cenzual                 #
#                                                                            #
#   Copyright (c) ASM International & Material Phases Data System (MPDS),    #
# Switzerland & National Institute for Materials Science (NIMS), Japan, 2023 #
#                   All rights reserved. Version 2023.07                     #
#                                                                            #
#   This copy of Pearson's Crystal Data is licensed to:                      #
#   Hunter College - City University of New York                             #
#                                                                            #
##############################################################################

data_1000445
_audit_creation_date                     2024-02-24
_audit_creation_method
;
Pearson's Crystal Data browser
;
#_database_code_PCD                      1000445
_database_code_PDF                       04-009-1475

# Entry summary

_chemical_formula_structural             'La Co~2~ Ga'
_chemical_formula_sum                    'Co2 Ga La'
_chemical_name_mineral                   ?
_chemical_compound_source                ?
_chemical_name_structure_type            PrCo~2~Ga,oP8,51
_chemical_formula_weight                 326.5

# Bibliographic data

_publ_section_title
'Crystal structure of the compounds PrCo~2~Ga and LaCo~2~Ga'                  
_journal_coden_ASTM                      DNUNDU
_journal_name_full                       'Dopov. Akad. Nauk Ukr. RSR, Ser. A'
_journal_year                            1976
_journal_volume                          ?
_journal_page_first                      86
_journal_page_last                       88
_journal_language                        Ukrainian
loop_
 _publ_author_name
 _publ_author_address
'Yarmolyuk Y.P.'
;
Lviv Ivan Franko State University
Lviv
Ukraine
;
'Krypyakevych P.I.'
;
Lviv Ivan Franko State University
Department of Inorganic Chemistry
Lviv
Ukraine
;

# Standardized crystallographic data

_cell_length_a                           5.09
_cell_length_b                           4.071
_cell_length_c                           6.978
_cell_angle_alpha                        90
_cell_angle_beta                         90
_cell_angle_gamma                        90
_cell_volume                             144.6
_cell_formula_units_Z                    2
_space_group_IT_number                   51
_space_group_name_H-M_alt                'P m m a'
loop_
 _space_group_symop_id
 _space_group_symop_operation_xyz
 1 'x, y, z'
 2 '1/2-x, -y, z'
 3 '1/2-x, y, z'
 4 '-x, -y, -z'
 5 '-x, y, -z'
 6 '1/2+x, -y, -z'
 7 '1/2+x, y, -z'
 8 'x, -y, z'

# Atomic positions taken from type-defining entry

loop_
 _atom_type_symbol
 Ga
 La
 Co
loop_
 _atom_site_label
 _atom_site_type_symbol
 _atom_site_symmetry_multiplicity
 _atom_site_Wyckoff_symbol
 _atom_site_fract_x
 _atom_site_fract_y
 _atom_site_fract_z
 _atom_site_occupancy
 Ga1 Ga 2 f 0.25 0.5 0.108 1
 La1 La 2 f 0.25 0.5 0.683 1
 Co1 Co 2 e 0.25 0 0.315 1
 Co2 Co 2 a 0 0 0 1


_exptl_crystal_colour                    ?
_exptl_crystal_density_meas              ?
_exptl_crystal_density_diffrn            7.50
_cell_measurement_temperature            ?
_cell_measurement_radiation              'X-rays, Cr K'
_cell_measurement_reflns_used            ?
_diffrn_ambient_temperature              ?
_diffrn_measurement_device               film
_diffrn_measurement_device_type          ?
_diffrn_radiation_type                   ?
_diffrn_reflns_number                    ?
_exptl_absorpt_coefficient_mu            ?
_exptl_absorpt_correction_type           ?
_computing_structure_solution            ?
_refine_ls_number_parameters             ?
_refine_ls_number_reflns                 ?
_refine_ls_R_factor_gt                   ?
_refine_ls_wR_factor_gt                  ?

# End of data set 1000445

