##############################################################################
#                                                                            #
# In-Nd-Ni         # NdNiIn4                                       # 1000167 #
#                                                                            #
##############################################################################
#                                                                            #
#                           Pearson's Crystal Data                           #
#      Crystal Structure Database for Inorganic Compounds (on DVD)           #
#                              Release 2023/24                               #
#                  Editors: Pierre Villars and Karin Cenzual                 #
#                                                                            #
#   Copyright (c) ASM International & Material Phases Data System (MPDS),    #
# Switzerland & National Institute for Materials Science (NIMS), Japan, 2023 #
#                   All rights reserved. Version 2023.07                     #
#                                                                            #
#   This copy of Pearson's Crystal Data is licensed to:                      #
#   Hunter College - City University of New York                             #
#                                                                            #
##############################################################################

data_1000167
_audit_creation_date                     2024-02-25
_audit_creation_method
;
Pearson's Crystal Data browser
;
#_database_code_PCD                      1000167
_database_code_PDF                       04-006-8296

# Entry summary

_chemical_formula_structural             'Nd Ni In~4~'
_chemical_formula_sum                    'In4 Nd Ni'
_chemical_name_mineral                   ?
_chemical_compound_source                ?
_chemical_name_structure_type            YNiAl~4~,oS24,63
_chemical_formula_weight                 662.2

# Bibliographic data

_publ_section_title
'Crystal structure of the compounds REM NiIn~4~ (REM= La, Ce, Pr, Nd, Eu, Yb)'
_journal_coden_ASTM                      SPHCA6
_journal_name_full                       'Sov. Phys. Crystallogr.'
_journal_year                            1988
_journal_volume                          33
_journal_page_first                      602
_journal_page_last                       603
_journal_language                        English
loop_
 _publ_author_name
 _publ_author_address
'Kalychak Y.M.'
;
Lviv Ivan Franko State University
Department of Inorganic Chemistry
Lviv
Ukraine
;
'Baranyak V.M.'
;
Lviv Ivan Franko State University
Lviv
Ukraine
;
'Zaremba V.I.'
;
Lviv Ivan Franko State University
Lviv
Ukraine
;
'Zavalii P.Y.'
;
Lviv Ivan Franko State University
Department of Inorganic Chemistry
Lviv
Ukraine
;
'Dmytrakh O.V.'
;
Lviv Ivan Franko State University
Lviv
Ukraine
;
'Bruskov V.A.'
;
Research and Production Enterprise "Bourevestnik"
Saint Petersburg
Russia
;

# Standardized crystallographic data

_cell_length_a                           4.43
_cell_length_b                           16.656
_cell_length_c                           7.178
_cell_angle_alpha                        90
_cell_angle_beta                         90
_cell_angle_gamma                        90
_cell_volume                             529.6
_cell_formula_units_Z                    4
_space_group_IT_number                   63
_space_group_name_H-M_alt                'C m c m'
loop_
 _space_group_symop_id
 _space_group_symop_operation_xyz
 1 'x, y, z'
 2 '-x, -y, -z'
 3 '-x, -y, 1/2+z'
 4 '-x, y, 1/2-z'
 5 '-x, y, z'
 6 'x, -y, -z'
 7 'x, -y, 1/2+z'
 8 'x, y, 1/2-z'
 9 '1/2+x, 1/2+y, z'
 10 '1/2-x, 1/2-y, -z'
 11 '1/2-x, 1/2-y, 1/2+z'
 12 '1/2-x, 1/2+y, 1/2-z'
 13 '1/2-x, 1/2+y, z'
 14 '1/2+x, 1/2-y, -z'
 15 '1/2+x, 1/2-y, 1/2+z'
 16 '1/2+x, 1/2+y, 1/2-z'

# Atomic positions taken from type-defining entry

loop_
 _atom_type_symbol
 In
 Nd
 Ni
loop_
 _atom_site_label
 _atom_site_type_symbol
 _atom_site_symmetry_multiplicity
 _atom_site_Wyckoff_symbol
 _atom_site_fract_x
 _atom_site_fract_y
 _atom_site_fract_z
 _atom_site_occupancy
 In1 In 8 f 0 0.186 0.054 1
 Nd1 Nd 4 c 0 0.379 0.25 1
 In2 In 4 c 0 0.557 0.25 1
 Ni1 Ni 4 c 0 0.729 0.25 1
 In3 In 4 a 0 0 0 1


_exptl_crystal_colour                    ?
_exptl_crystal_density_meas              ?
_exptl_crystal_density_diffrn            8.31
_cell_measurement_temperature            ?
_cell_measurement_radiation              ?
_cell_measurement_reflns_used            ?
_diffrn_ambient_temperature              ?
_diffrn_measurement_device               ?
_diffrn_measurement_device_type          ?
_diffrn_radiation_type                   ?
_diffrn_reflns_number                    ?
_exptl_absorpt_coefficient_mu            ?
_exptl_absorpt_correction_type           ?
_computing_structure_solution            ?
_refine_ls_number_parameters             ?
_refine_ls_number_reflns                 ?
_refine_ls_R_factor_gt                   ?
_refine_ls_wR_factor_gt                  ?

# End of data set 1000167

