##############################################################################
#                                                                            #
# Pd-Si-Sm         # SmPd2Si                                       # 1000290 #
#                                                                            #
##############################################################################
#                                                                            #
#                           Pearson's Crystal Data                           #
#      Crystal Structure Database for Inorganic Compounds (on DVD)           #
#                              Release 2023/24                               #
#                  Editors: Pierre Villars and Karin Cenzual                 #
#                                                                            #
#   Copyright (c) ASM International & Material Phases Data System (MPDS),    #
# Switzerland & National Institute for Materials Science (NIMS), Japan, 2023 #
#                   All rights reserved. Version 2023.07                     #
#                                                                            #
#   This copy of Pearson's Crystal Data is licensed to:                      #
#   Hunter College - City University of New York                             #
#                                                                            #
##############################################################################

data_1000290
_audit_creation_date                     2024-02-25
_audit_creation_method
;
Pearson's Crystal Data browser
;
#_database_code_PCD                      1000290
_database_code_PDF                       04-006-8372

# Entry summary

_chemical_formula_structural             'Sm Pd~2~ Si'
_chemical_formula_sum                    'Pd2 Si Sm'
_chemical_name_mineral                   ?
_chemical_compound_source                ?
_chemical_name_structure_type            YPd~2~Si,oP16,62
_chemical_formula_weight                 391.3

# Bibliographic data

_publ_section_title
'Structure of YPd~2~Si, an ordered Fe~3~C type'                               
_journal_coden_ASTM                      ACBCAR
_journal_name_full                       'Acta Crystallogr. B'
_journal_year                            1982
_journal_volume                          38
_journal_page_first                      2446
_journal_page_last                       2448
_journal_language                        English
loop_
 _publ_author_name
 _publ_author_address
'Moreau J.M.'
;
Savoie University
Laboratoire de Structure de la Matiere (LSM)
Annecy
France
;
'Le Roy J.'
;
Savoie University
Laboratoire de Structure de la Matiere (LSM)
Annecy
France
;
'Paccard D.'
;
Savoie University
Laboratoire de Structure de la Matiere (LSM)
Annecy
France
;

# Standardized crystallographic data

_cell_length_a                           7.445
_cell_length_b                           6.905
_cell_length_c                           5.584
_cell_angle_alpha                        90
_cell_angle_beta                         90
_cell_angle_gamma                        90
_cell_volume                             287.1
_cell_formula_units_Z                    4
_space_group_IT_number                   62
_space_group_name_H-M_alt                'P n m a'
loop_
 _space_group_symop_id
 _space_group_symop_operation_xyz
 1 'x, y, z'
 2 '1/2-x, -y, 1/2+z'
 3 '1/2-x, 1/2+y, 1/2+z'
 4 '-x, -y, -z'
 5 '-x, 1/2+y, -z'
 6 '1/2+x, 1/2-y, 1/2-z'
 7 '1/2+x, y, 1/2-z'
 8 'x, 1/2-y, z'

# Atomic positions taken from type-defining entry

loop_
 _atom_type_symbol
 Pd
 Sm
 Si
loop_
 _atom_site_label
 _atom_site_type_symbol
 _atom_site_symmetry_multiplicity
 _atom_site_Wyckoff_symbol
 _atom_site_fract_x
 _atom_site_fract_y
 _atom_site_fract_z
 _atom_site_occupancy
 Pd1 Pd 8 d 0.1767 0.0517 0.0928 1
 Sm1 Sm 4 c 0.0303 0.25 0.644 1
 Si1 Si 4 c 0.362 0.25 0.353 1


_exptl_crystal_colour                    ?
_exptl_crystal_density_meas              ?
_exptl_crystal_density_diffrn            9.05
_cell_measurement_temperature            ?
_cell_measurement_radiation              'X-rays, Cu Ka'
_cell_measurement_wavelength             1.5418
_pd_proc_wavelength                      1.5418
_cell_measurement_reflns_used            25
_diffrn_ambient_temperature              ?
_diffrn_measurement_device               'Guinier film'
_diffrn_measurement_device_type          ?
_diffrn_radiation_type                   ?
_diffrn_reflns_number                    ?
_exptl_absorpt_coefficient_mu            ?
_exptl_absorpt_correction_type           ?
_computing_structure_solution            ?
_refine_ls_number_parameters             ?
_refine_ls_number_reflns                 ?
_refine_ls_R_factor_gt                   ?
_refine_ls_wR_factor_gt                  ?

# End of data set 1000290

