##############################################################################
#                                                                            #
# Gd-Ni-Si         # Gd3NiSi2                                      # 1000238 #
#                                                                            #
##############################################################################
#                                                                            #
#                           Pearson's Crystal Data                           #
#      Crystal Structure Database for Inorganic Compounds (on DVD)           #
#                              Release 2023/24                               #
#                  Editors: Pierre Villars and Karin Cenzual                 #
#                                                                            #
#   Copyright (c) ASM International & Material Phases Data System (MPDS),    #
# Switzerland & National Institute for Materials Science (NIMS), Japan, 2023 #
#                   All rights reserved. Version 2023.07                     #
#                                                                            #
#   This copy of Pearson's Crystal Data is licensed to:                      #
#   Hunter College - City University of New York                             #
#                                                                            #
##############################################################################

data_1000238
_audit_creation_date                     2024-02-24
_audit_creation_method
;
Pearson's Crystal Data browser
;
#_database_code_PCD                      1000238
_database_code_PDF                       04-006-8341

# Entry summary

_chemical_formula_structural             'Gd~3~ Ni Si~2~'
_chemical_formula_sum                    'Gd3 Ni Si2'
_chemical_name_mineral                   ?
_chemical_compound_source                ?
_chemical_name_structure_type            Gd~3~NiSi~2~,oP24,62
_chemical_formula_weight                 586.6

# Bibliographic data

_publ_section_title
;
Orthorhombic gadolinium nickel silicide Gd~3~NiSi~2~ with a filled-up Hf~3~P~2~ structure type
;
_journal_coden_ASTM                      ACBCAR
_journal_name_full                       'Acta Crystallogr. B'
_journal_year                            1981
_journal_volume                          37
_journal_page_first                      1500
_journal_page_last                       1504
_journal_language                        English
loop_
 _publ_author_name
 _publ_author_address
'Klepp K.O.'
;
Geneva University (UNIGE)
Laboratoire de Cristallographie aux Rayons X
Geneva
Switzerland
;
'Parthe E.'
;
Geneva University (UNIGE)
Laboratoire de Cristallographie aux Rayons X
Geneva
Switzerland
;

# Standardized crystallographic data

_cell_length_a                           11.398
_cell_length_b                           4.155
_cell_length_c                           11.31
_cell_angle_alpha                        90
_cell_angle_beta                         90
_cell_angle_gamma                        90
_cell_volume                             535.6
_cell_formula_units_Z                    4
_space_group_IT_number                   62
_space_group_name_H-M_alt                'P n m a'
loop_
 _space_group_symop_id
 _space_group_symop_operation_xyz
 1 'x, y, z'
 2 '1/2-x, -y, 1/2+z'
 3 '1/2-x, 1/2+y, 1/2+z'
 4 '-x, -y, -z'
 5 '-x, 1/2+y, -z'
 6 '1/2+x, 1/2-y, 1/2-z'
 7 '1/2+x, y, 1/2-z'
 8 'x, 1/2-y, z'
loop_
 _atom_type_symbol
 Gd
 Ni
 Si
loop_
 _atom_site_label
 _atom_site_type_symbol
 _atom_site_symmetry_multiplicity
 _atom_site_Wyckoff_symbol
 _atom_site_fract_x
 _atom_site_fract_y
 _atom_site_fract_z
 _atom_site_occupancy
 Gd2 Gd 4 c 0.0576 0.25 0.375 1
 Ni Ni 4 c 0.1285 0.25 0.1334 1
 Gd3 Gd 4 c 0.2137 0.25 0.6976 1
 Si2 Si 4 c 0.303 0.25 0.005 1
 Gd1 Gd 4 c 0.3814 0.25 0.4403 1
 Si1 Si 4 c 0.473 0.25 0.685 1


_exptl_crystal_colour                    ?
_exptl_crystal_density_meas              ?
_exptl_crystal_density_diffrn            7.27
_cell_measurement_temperature            ?
_cell_measurement_radiation              'X-rays, Mo Ka'
_cell_measurement_wavelength             0.71069
_cell_measurement_reflns_used            36
_diffrn_ambient_temperature              ?
_diffrn_measurement_device               'automatic diffractometer'
_diffrn_measurement_device_type          'Philips PW1100'
_diffrn_radiation_type                   'X-rays, Mo Ka'
_diffrn_radiation_wavelength             0.71069
_diffrn_reflns_number                    664
_diffrn_reflns_theta_min                 3
_diffrn_reflns_theta_max                 27
_exptl_absorpt_coefficient_mu            41.5
_exptl_absorpt_correction_type           spherical
_computing_structure_solution            'direct methods'
_refine_ls_number_parameters             37
_refine_ls_number_reflns                 542
_refine_ls_R_factor_gt                   0.059
_refine_ls_wR_factor_gt                  0.070

# End of data set 1000238

