##############################################################################
#                                                                            #
# Ga-La-Ni         # LaNiGa                                        # 1000149 #
#                                                                            #
##############################################################################
#                                                                            #
#                           Pearson's Crystal Data                           #
#      Crystal Structure Database for Inorganic Compounds (on DVD)           #
#                              Release 2023/24                               #
#                  Editors: Pierre Villars and Karin Cenzual                 #
#                                                                            #
#   Copyright (c) ASM International & Material Phases Data System (MPDS),    #
# Switzerland & National Institute for Materials Science (NIMS), Japan, 2023 #
#                   All rights reserved. Version 2023.07                     #
#                                                                            #
#   This copy of Pearson's Crystal Data is licensed to:                      #
#   Hunter College - City University of New York                             #
#                                                                            #
##############################################################################

data_1000149
_audit_creation_date                     2024-02-24
_audit_creation_method
;
Pearson's Crystal Data browser
;
#_database_code_PCD                      1000149
_database_code_PDF                       04-009-1348

# Entry summary

_chemical_formula_structural             'La Ni Ga'
_chemical_formula_sum                    'Ga La Ni'
_chemical_name_mineral                   ?
_chemical_compound_source                ?
_chemical_name_structure_type            EuNiGe,mP12,14
_chemical_formula_weight                 267.3

# Bibliographic data

_publ_section_title
'Crystal structure of the compound LaGaNi'                                    
_journal_coden_ASTM                      SPHCA6
_journal_name_full                       'Sov. Phys. Crystallogr.'
_journal_year                            1986
_journal_volume                          31
_journal_page_first                      106
_journal_page_last                       108
_journal_language                        English
loop_
 _publ_author_name
 _publ_author_address
'Yarmolyuk Y.P.'
;
Lviv Ivan Franko State University
Department of Inorganic Chemistry
Lviv
Ukraine
;
'Grin Y.'
;
Lviv Ivan Franko State University
Lviv
Ukraine
;
'Vasilechko L.O.'
;
Lviv Ivan Franko State University
Lviv
Ukraine
;
'Belskii V.K.'
;
Karpov Institute of Physical Chemistry
Moscow
Russia
;

# Standardized crystallographic data

_cell_length_a                           6.097
_cell_length_b                           6.341
_cell_length_c                           7.6717
_cell_angle_alpha                        90
_cell_angle_beta                         123.344
_cell_angle_gamma                        90
_cell_volume                             247.8
_cell_formula_units_Z                    4
_space_group_IT_number                   14
_space_group_name_H-M_alt                'P 1 21/c 1'
loop_
 _space_group_symop_id
 _space_group_symop_operation_xyz
 1 'x, y, z'
 2 '-x, -y, -z'
 3 '-x, 1/2+y, 1/2-z'
 4 'x, 1/2-y, 1/2+z'
loop_
 _atom_type_symbol
 Ni
 Ga
 La
loop_
 _atom_site_label
 _atom_site_type_symbol
 _atom_site_symmetry_multiplicity
 _atom_site_Wyckoff_symbol
 _atom_site_fract_x
 _atom_site_fract_y
 _atom_site_fract_z
 _atom_site_occupancy
 Ni Ni 4 e 0.1337 0.0891 0.1801 1
 Ga Ga 4 e 0.2447 0.3648 0.4247 1
 La La 4 e 0.285 0.6457 0.085 1


_exptl_crystal_colour                    ?
_exptl_crystal_density_meas              ?
_exptl_crystal_density_diffrn            7.17
_cell_measurement_temperature            ?
_cell_measurement_radiation              'X-rays, Mo Ka'
_cell_measurement_reflns_used            ?
_diffrn_ambient_temperature              ?
_diffrn_measurement_device               'automatic diffractometer'
_diffrn_measurement_device_type          'Nicolet R3'
_diffrn_radiation_type                   'X-rays, Mo Ka'
_diffrn_reflns_number                    ?
_exptl_absorpt_coefficient_mu            ?
_exptl_absorpt_correction_type           ?
_computing_structure_solution            'Patterson synthesis'
_refine_ls_number_parameters             ?
_refine_ls_number_reflns                 334
_refine_ls_R_factor_gt                   0.043
_refine_ls_wR_factor_gt                  ?

# End of data set 1000149

