##############################################################################
#                                                                            #
# Ge-Ni-Y          # YNi2Ge2                                       # 1001121 #
#                                                                            #
##############################################################################
#                                                                            #
#                           Pearson's Crystal Data                           #
#      Crystal Structure Database for Inorganic Compounds (on DVD)           #
#                              Release 2023/24                               #
#                  Editors: Pierre Villars and Karin Cenzual                 #
#                                                                            #
#   Copyright (c) ASM International & Material Phases Data System (MPDS),    #
# Switzerland & National Institute for Materials Science (NIMS), Japan, 2023 #
#                   All rights reserved. Version 2023.07                     #
#                                                                            #
#   This copy of Pearson's Crystal Data is licensed to:                      #
#   Hunter College - City University of New York                             #
#                                                                            #
##############################################################################

data_1001121
_audit_creation_date                     2024-02-25
_audit_creation_method
;
Pearson's Crystal Data browser
;
#_database_code_PCD                      1001121
_database_code_PDF                       04-006-8741

# Entry summary

_chemical_formula_structural             'Y Ni~2~ Ge~2~'
_chemical_formula_sum                    'Ge2 Ni2 Y'
_chemical_name_mineral                   ?
_chemical_compound_source                ?
_chemical_name_structure_type            CeAl~2~Ga~2~,tI10,139
_chemical_formula_weight                 351.5

# Bibliographic data

_publ_section_title
;
Method of taking account of influence of preferred orientation (texture) in a powdered specimen by investigation of the atomic structure of the substance
;
_journal_coden_ASTM                      SPHCA6
_journal_name_full                       'Sov. Phys. Crystallogr.'
_journal_year                            1987
_journal_volume                          32
_journal_page_first                      514
_journal_page_last                       516
_journal_language                        English
loop_
 _publ_author_name
 _publ_author_address
'Pecharskii V.K.'
;
Lviv Ivan Franko State University
Department of Inorganic Chemistry
Lviv
Ukraine
;
'Akselrud L.G.'
;
Lviv Ivan Franko State University
Department of Inorganic Chemistry
Lviv
Ukraine
;
'Zavalii P.Y.'
;
Lviv Ivan Franko State University
Department of Inorganic Chemistry
Lviv
Ukraine
;

# Standardized crystallographic data

_cell_length_a                           4.04
_cell_length_b                           4.04
_cell_length_c                           9.758
_cell_angle_alpha                        90
_cell_angle_beta                         90
_cell_angle_gamma                        90
_cell_volume                             159.3
_cell_formula_units_Z                    2
_space_group_IT_number                   139
_space_group_name_H-M_alt                'I 4/m m m'
loop_
 _space_group_symop_id
 _space_group_symop_operation_xyz
 1 'x, y, z'
 2 '-x, -y, -z'
 3 '-x, -y, z'
 4 '-x, y, -z'
 5 '-x, y, z'
 6 '-y, -x, -z'
 7 '-y, -x, z'
 8 '-y, x, -z'
 9 '-y, x, z'
 10 'x, -y, -z'
 11 'x, -y, z'
 12 'x, y, -z'
 13 'y, -x, -z'
 14 'y, -x, z'
 15 'y, x, -z'
 16 'y, x, z'
 17 '1/2+x, 1/2+y, 1/2+z'
 18 '1/2-x, 1/2-y, 1/2-z'
 19 '1/2-x, 1/2-y, 1/2+z'
 20 '1/2-x, 1/2+y, 1/2-z'
 21 '1/2-x, 1/2+y, 1/2+z'
 22 '1/2-y, 1/2-x, 1/2-z'
 23 '1/2-y, 1/2-x, 1/2+z'
 24 '1/2-y, 1/2+x, 1/2-z'
 25 '1/2-y, 1/2+x, 1/2+z'
 26 '1/2+x, 1/2-y, 1/2-z'
 27 '1/2+x, 1/2-y, 1/2+z'
 28 '1/2+x, 1/2+y, 1/2-z'
 29 '1/2+y, 1/2-x, 1/2-z'
 30 '1/2+y, 1/2-x, 1/2+z'
 31 '1/2+y, 1/2+x, 1/2-z'
 32 '1/2+y, 1/2+x, 1/2+z'
loop_
 _atom_type_symbol
 Ge
 Ni
 Y
loop_
 _atom_site_label
 _atom_site_type_symbol
 _atom_site_symmetry_multiplicity
 _atom_site_Wyckoff_symbol
 _atom_site_fract_x
 _atom_site_fract_y
 _atom_site_fract_z
 _atom_site_occupancy
 Ge Ge 4 e 0 0 0.3716 1
 Ni Ni 4 d 0 0.5 0.25 1
 Y Y 2 a 0 0 0 1


_exptl_crystal_colour                    ?
_exptl_crystal_density_meas              ?
_exptl_crystal_density_diffrn            7.33
_cell_measurement_temperature            ?
_cell_measurement_radiation              ?
_cell_measurement_reflns_used            ?
_diffrn_ambient_temperature              ?
_diffrn_measurement_device               'automatic diffractometer'
_diffrn_measurement_device_type          DRON-3
_diffrn_radiation_type                   'X-rays, Cu Ka'
_diffrn_reflns_number                    ?
_exptl_absorpt_coefficient_mu            ?
_exptl_absorpt_correction_type           ?
_computing_structure_solution            'starting values from the literature'
_refine_ls_number_parameters             ?
_refine_ls_number_reflns                 61
_refine_ls_R_factor_gt                   0.077
_refine_ls_wR_factor_gt                  ?
_pd_proc_ls_proof_R_factor               ?
_pd_proc_ls_proof_wR_factor              ?
_refine_ls_R_I_factor                    ?

# Published diffraction lines

loop_
 _refln_index_h
 _refln_index_k
 _refln_index_l
 _refln_d_spacing
 _refln_intensity_meas
 0 0 2 4.87 34
 0 1 1 3.72 5
 1 1 0 2.859 189
 0 1 3 2.533 1000
 1 1 2 2.467 794
 0 2 0 2.019 497
 0 2 2 1.867 270
 0 1 5 1.759 294
 1 2 3 1.58 390
 0 2 4 1.556 18
 2 2 0 1.428 170
 1 1 6 1.414 211
 1 2 5 1.326 178
 1 3 0 1.277 34
 0 3 3 1.245 70
 1 3 2 1.236 110
 0 0 8 1.221 66
 1 3 4 1.132 45
 1 1 8 1.123 32
 0 3 5 1.109 42
 2 3 3 1.059 86
 0 2 8 1.045 159
 0 4 0 1.01 42
 1 3 6 1.005 68
 2 3 5 0.972 57
 3 3 0 0.952 5
 1 4 3 0.938 98
 2 2 8 0.928 165
 2 4 0 0.903 66
 3 3 4 0.887 11
 1 3 8 0.883 29
 1 4 5 0.876 56
 0 1 11 0.867 48
 2 4 4 0.847 4
 3 3 6 0.822 36

# End of data set 1001121

