##############################################################################
#                                                                            #
# Ge-Pt-U          # UPtGe rt                                      # 1004128 #
#                                                                            #
##############################################################################
#                                                                            #
#                           Pearson's Crystal Data                           #
#      Crystal Structure Database for Inorganic Compounds (on DVD)           #
#                              Release 2023/24                               #
#                  Editors: Pierre Villars and Karin Cenzual                 #
#                                                                            #
#   Copyright (c) ASM International & Material Phases Data System (MPDS),    #
# Switzerland & National Institute for Materials Science (NIMS), Japan, 2023 #
#                   All rights reserved. Version 2023.07                     #
#                                                                            #
#   This copy of Pearson's Crystal Data is licensed to:                      #
#   Hunter College - City University of New York                             #
#                                                                            #
##############################################################################

data_1004128
_audit_creation_date                     2024-02-25
_audit_creation_method
;
Pearson's Crystal Data browser
;
#_database_code_PCD                      1004128
_database_code_PDF                       ?

# Entry summary

_chemical_formula_structural             'U Pt Ge'
_chemical_formula_sum                    'Ge Pt U'
_chemical_name_mineral                   ?
_chemical_compound_source                ?
_chemical_name_structure_type            AuEuGe,oI12,44
_chemical_formula_weight                 505.7

# Bibliographic data

_publ_section_title
'Platinum-germanium ordering in UPtGe'                                        
_journal_coden_ASTM                      SSSCFJ
_journal_name_full                       'Solid State Sci.'
_journal_year                            2001
_journal_volume                          3
_journal_page_first                      697
_journal_page_last                       703
_journal_language                        English
loop_
 _publ_author_name
 _publ_author_address
'Hoffmann R.D.'
;
Munich Ludwig Maximilian University (LMU)
Department fur Chemie
Munich
Germany
;
'Pottgen R.'
;
Munich Ludwig Maximilian University (LMU)
Department fur Chemie
Munich
Germany
;
'Lander G.H.'
;
European Commission Joint Research Center (JRC)
Institute for Transuranium Elements
Karlsruhe
Germany
;
'Rebizant J.'
;
European Commission Joint Research Center (JRC)
Institute for Transuranium Elements
Karlsruhe
Germany
;

# Standardized crystallographic data

_cell_length_a                           4.3286
_cell_length_b                           7.1881
_cell_length_c                           7.5166
_cell_angle_alpha                        90
_cell_angle_beta                         90
_cell_angle_gamma                        90
_cell_volume                             233.87
_cell_formula_units_Z                    4
_space_group_IT_number                   44
_space_group_name_H-M_alt                'I m m 2'
loop_
 _space_group_symop_id
 _space_group_symop_operation_xyz
 1 'x, y, z'
 2 '-x, -y, z'
 3 '-x, y, z'
 4 'x, -y, z'
 5 '1/2+x, 1/2+y, 1/2+z'
 6 '1/2-x, 1/2-y, 1/2+z'
 7 '1/2-x, 1/2+y, 1/2+z'
 8 '1/2+x, 1/2-y, 1/2+z'
loop_
 _atom_type_symbol
 Ge
 Pt
 U
loop_
 _atom_site_label
 _atom_site_type_symbol
 _atom_site_symmetry_multiplicity
 _atom_site_Wyckoff_symbol
 _atom_site_fract_x
 _atom_site_fract_y
 _atom_site_fract_z
 _atom_site_occupancy
 Ge Ge 4 d 0 0.2198 0.3746 1
 Pt Pt 4 d 0 0.2908 0.7036 1
 U1 U 2 b 0 0.5 0.065 1
 U2 U 2 a 0 0 0.0 1


_exptl_crystal_colour                    ?
_exptl_crystal_density_meas              ?
_exptl_crystal_density_diffrn            14.36
_cell_measurement_temperature            ?
_cell_measurement_radiation              'X-rays, Cu Ka1'
_cell_measurement_reflns_used            ?
_diffrn_ambient_temperature              ?
_diffrn_measurement_device               'automatic diffractometer'
_diffrn_measurement_device_type          'STOE STADI P'
_diffrn_radiation_type                   'X-rays, Cu Ka1'
_diffrn_reflns_number                    ?
_diffrn_reflns_theta_min                 5
_diffrn_reflns_theta_max                 50
_pd_proc_2theta_range_min                10
_pd_proc_2theta_range_max                100
_exptl_absorpt_coefficient_mu            ?
_exptl_absorpt_correction_type           ?
_computing_structure_solution            'starting values from the literature'
_refine_ls_number_parameters             ?
_refine_ls_number_reflns                 ?
_refine_ls_R_factor_gt                   ?
_refine_ls_wR_factor_gt                  ?
_pd_proc_ls_proof_R_factor               0.067
_pd_proc_ls_proof_wR_factor              0.090
_refine_ls_R_I_factor                    ?

# End of data set 1004128

