##############################################################################
#                                                                            #
# Ge-Ir-Yb         # Yb2IrGe2                                      # 1004135 #
#                                                                            #
##############################################################################
#                                                                            #
#                           Pearson's Crystal Data                           #
#      Crystal Structure Database for Inorganic Compounds (on DVD)           #
#                              Release 2023/24                               #
#                  Editors: Pierre Villars and Karin Cenzual                 #
#                                                                            #
#   Copyright (c) ASM International & Material Phases Data System (MPDS),    #
# Switzerland & National Institute for Materials Science (NIMS), Japan, 2023 #
#                   All rights reserved. Version 2023.07                     #
#                                                                            #
#   This copy of Pearson's Crystal Data is licensed to:                      #
#   Hunter College - City University of New York                             #
#                                                                            #
##############################################################################

data_1004135
_audit_creation_date                     2024-02-25
_audit_creation_method
;
Pearson's Crystal Data browser
;
#_database_code_PCD                      1004135
_database_code_PDF                       04-011-0986

# Entry summary

_chemical_formula_structural             'Yb~2~ Ir Ge~2~'
_chemical_formula_sum                    'Ge2 Ir Yb2'
_chemical_name_mineral                   ?
_chemical_compound_source                ?
_chemical_name_structure_type            Sc~2~CoSi~2~,mS20,12
_chemical_formula_weight                 683.5

# Bibliographic data

_publ_section_title
;
Three-dimensional iridium-germanium polyanions in the structures of Yb~2~IrGe~2~, LuIrGe, and Lu~3~Ir~2~Ge~3~
;
_journal_coden_ASTM                      SSSCFJ
_journal_name_full                       'Solid State Sci.'
_journal_year                            2003
_journal_volume                          5
_journal_page_first                      487
_journal_page_last                       493
_journal_language                        English
loop_
 _publ_author_name
 _publ_author_address
'Rodewald U.C.'
;
Munster University (WWU)
Institut fur Anorganische und Analytische Chemie
Munster
Germany
;
'Pottgen R.'
;
Munster University (WWU)
Institut fur Anorganische und Analytische Chemie
Munster
Germany
;

# Standardized crystallographic data

_cell_length_a                           10.271
_cell_length_b                           4.228
_cell_length_c                           10.103
_cell_angle_alpha                        90
_cell_angle_beta                         116.64
_cell_angle_gamma                        90
_cell_volume                             392.2
_cell_formula_units_Z                    4
_space_group_IT_number                   12
_space_group_name_H-M_alt                'C 1 2/m 1'
loop_
 _space_group_symop_id
 _space_group_symop_operation_xyz
 1 'x, y, z'
 2 '-x, -y, -z'
 3 '-x, y, -z'
 4 'x, -y, z'
 5 '1/2+x, 1/2+y, z'
 6 '1/2-x, 1/2-y, -z'
 7 '1/2-x, 1/2+y, -z'
 8 '1/2+x, 1/2-y, z'
loop_
 _atom_type_symbol
 Yb
 Ir
 Ge
loop_
 _atom_site_label
 _atom_site_type_symbol
 _atom_site_symmetry_multiplicity
 _atom_site_Wyckoff_symbol
 _atom_site_fract_x
 _atom_site_fract_y
 _atom_site_fract_z
 _atom_site_occupancy
 Yb1 Yb 4 i 0.00833 0 0.32969 1
 Yb2 Yb 4 i 0.189 0 0.11574 1
 Ir Ir 4 i 0.27258 0 0.66317 1
 Ge1 Ge 4 i 0.3543 0 0.446 1
 Ge2 Ge 4 i 0.4773 0 0.1143 1


_exptl_crystal_colour                    ?
_exptl_crystal_density_meas              ?
_exptl_crystal_density_diffrn            11.58
_cell_measurement_temperature            ?
_cell_measurement_radiation              'X-rays, Cu Ka1'
_cell_measurement_reflns_used            ?
_diffrn_ambient_temperature              ?
_diffrn_measurement_device               'automatic diffractometer'
_diffrn_measurement_device_type          'Enraf-Nonius CAD4'
_diffrn_radiation_type                   'X-rays, Mo Ka'
_diffrn_reflns_number                    1221
_diffrn_reflns_theta_min                 2
_diffrn_reflns_theta_max                 30
_exptl_absorpt_coefficient_mu            95.9
_exptl_absorpt_correction_type           empirical
_computing_structure_solution            'direct methods, Fourier synthesis'
_refine_ls_number_parameters             32
_refine_ls_number_reflns                 573
_refine_ls_R_factor_gt                   0.0356
_refine_ls_wR_factor_gt                  0.1034

# End of data set 1004135

