##############################################################################
#                                                                            #
# Co-Ga-Sm         # Sm2Co2Ga                                      # 1007234 #
#                                                                            #
##############################################################################
#                                                                            #
#                           Pearson's Crystal Data                           #
#      Crystal Structure Database for Inorganic Compounds (on DVD)           #
#                              Release 2023/24                               #
#                  Editors: Pierre Villars and Karin Cenzual                 #
#                                                                            #
#   Copyright (c) ASM International & Material Phases Data System (MPDS),    #
# Switzerland & National Institute for Materials Science (NIMS), Japan, 2023 #
#                   All rights reserved. Version 2023.07                     #
#                                                                            #
#   This copy of Pearson's Crystal Data is licensed to:                      #
#   Hunter College - City University of New York                             #
#                                                                            #
##############################################################################

data_1007234
_audit_creation_date                     2024-02-24
_audit_creation_method
;
Pearson's Crystal Data browser
;
#_database_code_PCD                      1007234
_database_code_PDF                       ?

# Entry summary

_chemical_formula_structural             'Sm~2~ Co~2~ Ga'
_chemical_formula_sum                    'Co2 Ga Sm2'
_chemical_name_mineral                   ?
_chemical_compound_source                ?
_chemical_name_structure_type            W~2~CoB~2~,oI10,71
_chemical_formula_weight                 488.4

# Bibliographic data

_publ_section_title
;
Compounds of the Mo~2~NiB~2~ structure type in the systems R-Ga-Co (R= Nd, Sm, Gd, Tb, Dy Ho, Er, Tm, Y)
;
_journal_coden_ASTM                      VLDUAB
_journal_name_full
'Visn. Lviv. Derzh. Univ., Ser. Khim.'                                        
_journal_year                            1981
_journal_volume                          23
_journal_page_first                      26
_journal_page_last                       30
_journal_language                        Russian
loop_
 _publ_author_name
 _publ_author_address
'Gladyshevskii R.E.'
;
Lviv Ivan Franko State University
Department of Inorganic Chemistry
Lviv
Ukraine
;
'Grin Y.'
;
Lviv Ivan Franko State University
Department of Inorganic Chemistry
Lviv
Ukraine
;
'Yarmolyuk Y.P.'
;
Lviv Ivan Franko State University
Department of Inorganic Chemistry
Lviv
Ukraine
;

# Standardized crystallographic data

_cell_length_a                           4.151
_cell_length_b                           5.462
_cell_length_c                           8.552
_cell_angle_alpha                        90
_cell_angle_beta                         90
_cell_angle_gamma                        90
_cell_volume                             193.9
_cell_formula_units_Z                    2
_space_group_IT_number                   71
_space_group_name_H-M_alt                'I m m m'
loop_
 _space_group_symop_id
 _space_group_symop_operation_xyz
 1 'x, y, z'
 2 '-x, -y, -z'
 3 '-x, -y, z'
 4 '-x, y, -z'
 5 '-x, y, z'
 6 'x, -y, -z'
 7 'x, -y, z'
 8 'x, y, -z'
 9 '1/2+x, 1/2+y, 1/2+z'
 10 '1/2-x, 1/2-y, 1/2-z'
 11 '1/2-x, 1/2-y, 1/2+z'
 12 '1/2-x, 1/2+y, 1/2-z'
 13 '1/2-x, 1/2+y, 1/2+z'
 14 '1/2+x, 1/2-y, 1/2-z'
 15 '1/2+x, 1/2-y, 1/2+z'
 16 '1/2+x, 1/2+y, 1/2-z'
loop_
 _atom_type_symbol
 Sm
 Co
 Ga
loop_
 _atom_site_label
 _atom_site_type_symbol
 _atom_site_symmetry_multiplicity
 _atom_site_Wyckoff_symbol
 _atom_site_fract_x
 _atom_site_fract_y
 _atom_site_fract_z
 _atom_site_occupancy
 Sm Sm 4 j 0.5 0 0.296 1
 Co Co 4 h 0 0.211 0.5 1
 Ga Ga 2 a 0 0 0 1


_exptl_crystal_colour                    ?
_exptl_crystal_density_meas              ?
_exptl_crystal_density_diffrn            8.37
_cell_measurement_temperature            ?
_cell_measurement_radiation              'X-rays, Fe Ka'
_cell_measurement_reflns_used            ?
_diffrn_ambient_temperature              ?
_diffrn_measurement_device               'automatic diffractometer'
_diffrn_measurement_device_type          DRON-2
_diffrn_radiation_type                   'X-rays, Fe Ka'
_diffrn_reflns_number                    ?
_exptl_absorpt_coefficient_mu            ?
_exptl_absorpt_correction_type           ?
_computing_structure_solution            'starting values from the literature'
_refine_ls_number_parameters             ?
_refine_ls_number_reflns                 52
_refine_ls_R_factor_gt                   ?
_refine_ls_wR_factor_gt                  ?
_pd_proc_ls_proof_R_factor               ?
_pd_proc_ls_proof_wR_factor              ?
_refine_ls_R_I_factor                    0.132

# Published diffraction lines

loop_
 _refln_index_h
 _refln_index_k
 _refln_index_l
 _refln_d_spacing
 _refln_intensity_meas
 1 0 1 3.32 70
 2 0 0 2.74 47
 1 2 1 2.619 332
 1 3 0 2.537 93
 0 3 1 2.354 73
 2 2 0 2.309 89
 2 1 1 2.209 119
 0 4 0 2.144 52
 0 0 2 2.079 47
 3 0 1 1.668 22
 2 0 2 1.654 47
 1 5 0 1.633 ?
 1 3 2 1.604 37
 0 5 1 1.584 30
 3 2 1 1.555 100
 2 2 2 1.542 ?
 3 3 0 1.538 ?
 0 4 2 1.492 17
 0 6 0 1.427 12
 2 5 1 1.368 99
 1 5 2 1.282 51
 1 2 3 1.281 ?
 3 5 0 1.246 10
 0 3 3 1.244 ?
 3 3 2 1.235 35
 2 1 3 1.222 13
 1 7 0 1.194 23
 0 6 2 1.173 17
 4 0 2 1.141 26

# End of data set 1007234

