##############################################################################
#                                                                            #
# Co-Ga-Pr         # Pr3Co3Ga                                      # 1007214 #
#                                                                            #
##############################################################################
#                                                                            #
#                           Pearson's Crystal Data                           #
#      Crystal Structure Database for Inorganic Compounds (on DVD)           #
#                              Release 2023/24                               #
#                  Editors: Pierre Villars and Karin Cenzual                 #
#                                                                            #
#   Copyright (c) ASM International & Material Phases Data System (MPDS),    #
# Switzerland & National Institute for Materials Science (NIMS), Japan, 2023 #
#                   All rights reserved. Version 2023.07                     #
#                                                                            #
#   This copy of Pearson's Crystal Data is licensed to:                      #
#   Hunter College - City University of New York                             #
#                                                                            #
##############################################################################

data_1007214
_audit_creation_date                     2024-02-24
_audit_creation_method
;
Pearson's Crystal Data browser
;
#_database_code_PCD                      1007214
_database_code_PDF                       04-020-8543

# Entry summary

_chemical_formula_structural             'Pr~3~ Co~3~ Ga'
_chemical_formula_sum                    'Co3 Ga Pr3'
_chemical_name_mineral                   ?
_chemical_compound_source                ?
_chemical_name_structure_type            W~3~CoB~3~,oS28,63
_chemical_formula_weight                 669.2

# Bibliographic data

_publ_section_title
'The crystal structure of R~3~Co~3~Ga compounds (R= Pr, Nd, Sm, Gd, Tb, Y)'   
_journal_coden_ASTM                      DNUNDU
_journal_name_full                       'Dopov. Akad. Nauk Ukr. RSR, Ser. A'
_journal_year                            1978
_journal_volume                          ?
_journal_page_first                      855
_journal_page_last                       858
_journal_language                        Ukrainian
loop_
 _publ_author_name
 _publ_author_address
'Yarmolyuk Y.P.'
;
Lviv Ivan Franko State University
Lviv
Ukraine
;
'Grin Y.'
;
Lviv Ivan Franko State University
Lviv
Ukraine
;
'Gladyshevskii E.I.'
;
Lviv Ivan Franko State University
Department of Inorganic Chemistry
Lviv
Ukraine
;

# Standardized crystallographic data

_cell_length_a                           4.221
_cell_length_b                           10.27
_cell_length_c                           13.34
_cell_angle_alpha                        90
_cell_angle_beta                         90
_cell_angle_gamma                        90
_cell_volume                             578.3
_cell_formula_units_Z                    4
_space_group_IT_number                   63
_space_group_name_H-M_alt                'C m c m'
loop_
 _space_group_symop_id
 _space_group_symop_operation_xyz
 1 'x, y, z'
 2 '-x, -y, -z'
 3 '-x, -y, 1/2+z'
 4 '-x, y, 1/2-z'
 5 '-x, y, z'
 6 'x, -y, -z'
 7 'x, -y, 1/2+z'
 8 'x, y, 1/2-z'
 9 '1/2+x, 1/2+y, z'
 10 '1/2-x, 1/2-y, -z'
 11 '1/2-x, 1/2-y, 1/2+z'
 12 '1/2-x, 1/2+y, 1/2-z'
 13 '1/2-x, 1/2+y, z'
 14 '1/2+x, 1/2-y, -z'
 15 '1/2+x, 1/2-y, 1/2+z'
 16 '1/2+x, 1/2+y, 1/2-z'

# Atomic positions taken from type-defining entry

loop_
 _atom_type_symbol
 Pr
 Co
 Ga
loop_
 _atom_site_label
 _atom_site_type_symbol
 _atom_site_symmetry_multiplicity
 _atom_site_Wyckoff_symbol
 _atom_site_fract_x
 _atom_site_fract_y
 _atom_site_fract_z
 _atom_site_occupancy
 Pr1 Pr 8 f 0 0.2899 0.6064 1
 Co1 Co 8 f 0 0.4071 0.1136 1
 Pr2 Pr 4 c 0 0.0 0.25 1
 Co2 Co 4 c 0 0.2953 0.25 1
 Ga1 Ga 4 a 0 0 0 1


_exptl_crystal_colour                    ?
_exptl_crystal_density_meas              ?
_exptl_crystal_density_diffrn            7.69
_cell_measurement_temperature            ?
_cell_measurement_radiation              'X-rays, Cr K'
_cell_measurement_reflns_used            ?
_diffrn_ambient_temperature              ?
_diffrn_measurement_device               'Debye-Scherrer film'
_diffrn_measurement_device_type          ?
_diffrn_radiation_type                   ?
_diffrn_reflns_number                    ?
_exptl_absorpt_coefficient_mu            ?
_exptl_absorpt_correction_type           ?
_computing_structure_solution            ?
_refine_ls_number_parameters             ?
_refine_ls_number_reflns                 ?
_refine_ls_R_factor_gt                   ?
_refine_ls_wR_factor_gt                  ?

# End of data set 1007214

