##############################################################################
#                                                                            #
# Co-Si-Tb         # Tb3CoSi3                                      # 1008404 #
#                                                                            #
##############################################################################
#                                                                            #
#                           Pearson's Crystal Data                           #
#      Crystal Structure Database for Inorganic Compounds (on DVD)           #
#                              Release 2023/24                               #
#                  Editors: Pierre Villars and Karin Cenzual                 #
#                                                                            #
#   Copyright (c) ASM International & Material Phases Data System (MPDS),    #
# Switzerland & National Institute for Materials Science (NIMS), Japan, 2023 #
#                   All rights reserved. Version 2023.07                     #
#                                                                            #
#   This copy of Pearson's Crystal Data is licensed to:                      #
#   Hunter College - City University of New York                             #
#                                                                            #
##############################################################################

data_1008404
_audit_creation_date                     2024-02-24
_audit_creation_method
;
Pearson's Crystal Data browser
;
#_database_code_PCD                      1008404
_database_code_PDF                       04-017-7539

# Entry summary

_chemical_formula_structural             'Tb~3~ Co Si~3~'
_chemical_formula_sum                    'Co Si3 Tb3'
_chemical_name_mineral                   ?
_chemical_compound_source                ?
_chemical_name_structure_type            Sc~3~NiSi~3~,mS28,12
_chemical_formula_weight                 620.0

# Bibliographic data

_publ_section_title
'The crystal structure of Tb~3~CoSi~3~'                                       
_journal_coden_ASTM                      ICCIC8
_journal_name_full
'Abstr. 8th Int. Conf. Crystal Chem. Intermet. Compd.'                        
_journal_year                            2002
_journal_volume                          ?
_journal_page_first                      107
_journal_page_last                       ?
_journal_language                        English
loop_
 _publ_author_name
 _publ_author_address
'Belan B.D.'
;
Lviv Ivan Franko National University
Department of Inorganic Chemistry
Lviv
Ukraine
;
'Stepien Damm J.'
;
Polish Academy of Sciences (PAN)
Trzebiatowski W. Institute of Low Temperature and Structure Research
Warsaw
Poland
;
'Bodak O.I.'
;
Lviv Ivan Franko National University
Department of Inorganic Chemistry
Lviv
Ukraine
;
'Kryvulya L.V.'
;
Lviv Ivan Franko National University
Department of Inorganic Chemistry
Lviv
Ukraine
;
'Kharchenko O.I.'
;
Lviv Ivan Franko National University
Department of Inorganic Chemistry
Lviv
Ukraine
;

# Standardized crystallographic data

_cell_length_a                           10.512
_cell_length_b                           4.173
_cell_length_c                           13.535
_cell_angle_alpha                        90
_cell_angle_beta                         110.97
_cell_angle_gamma                        90
_cell_volume                             554.4
_cell_formula_units_Z                    4
_space_group_IT_number                   12
_space_group_name_H-M_alt                'C 1 2/m 1'
loop_
 _space_group_symop_id
 _space_group_symop_operation_xyz
 1 'x, y, z'
 2 '-x, -y, -z'
 3 '-x, y, -z'
 4 'x, -y, z'
 5 '1/2+x, 1/2+y, z'
 6 '1/2-x, 1/2-y, -z'
 7 '1/2-x, 1/2+y, -z'
 8 '1/2+x, 1/2-y, z'
loop_
 _atom_type_symbol
 Si
 Co
 Tb
loop_
 _atom_site_label
 _atom_site_type_symbol
 _atom_site_symmetry_multiplicity
 _atom_site_Wyckoff_symbol
 _atom_site_fract_x
 _atom_site_fract_y
 _atom_site_fract_z
 _atom_site_occupancy
 Si1 Si 4 i 0.05176 0 0.23984 1
 Si2 Si 4 i 0.11235 0 0.07625 1
 Si3 Si 4 i 0.13852 0 0.54389 1
 Co Co 4 i 0.24663 0 0.41533 1
 Tb1 Tb 4 i 0.39729 0 0.07966 1
 Tb2 Tb 4 i 0.52469 0 0.37916 1
 Tb3 Tb 4 i 0.74722 0 0.22866 1


_exptl_crystal_colour                    ?
_exptl_crystal_density_meas              ?
_exptl_crystal_density_diffrn            7.43
_cell_measurement_temperature            ?
_cell_measurement_radiation              'X-rays, Mo Ka'
_cell_measurement_reflns_used            ?
_diffrn_ambient_temperature              ?
_diffrn_measurement_device               'automatic diffractometer'
_diffrn_measurement_device_type          ?
_diffrn_radiation_type                   'X-rays, Mo Ka'
_diffrn_reflns_number                    ?
_exptl_absorpt_coefficient_mu            ?
_exptl_absorpt_correction_type           ?
_computing_structure_solution            'starting values from the literature'
_refine_ls_number_parameters             ?
_refine_ls_number_reflns                 1960
_refine_ls_R_factor_gt                   0.0378
_refine_ls_wR_factor_gt                  0.0801

# End of data set 1008404

