##############################################################################
#                                                                            #
# Co-Si-Tm         # Tm2CoSi2                                      # 1008416 #
#                                                                            #
##############################################################################
#                                                                            #
#                           Pearson's Crystal Data                           #
#      Crystal Structure Database for Inorganic Compounds (on DVD)           #
#                              Release 2023/24                               #
#                  Editors: Pierre Villars and Karin Cenzual                 #
#                                                                            #
#   Copyright (c) ASM International & Material Phases Data System (MPDS),    #
# Switzerland & National Institute for Materials Science (NIMS), Japan, 2023 #
#                   All rights reserved. Version 2023.07                     #
#                                                                            #
#   This copy of Pearson's Crystal Data is licensed to:                      #
#   Hunter College - City University of New York                             #
#                                                                            #
##############################################################################

data_1008416
_audit_creation_date                     2024-02-24
_audit_creation_method
;
Pearson's Crystal Data browser
;
#_database_code_PCD                      1008416
_database_code_PDF                       04-017-7542

# Entry summary

_chemical_formula_structural             'Tm~2~ Co Si~2~'
_chemical_formula_sum                    'Co Si2 Tm2'
_chemical_name_mineral                   ?
_chemical_compound_source                ?
_chemical_name_structure_type            Sc~2~CoSi~2~,mS20,12
_chemical_formula_weight                 453.0

# Bibliographic data

_publ_section_title                      'Crystal structure of Tm~2~CoSi~2~'
_journal_coden_ASTM                      ICCIC7
_journal_name_full
'Abstr. 7th Int. Conf. Crystal Chem. Intermet. Compd.'                        
_journal_year                            1999
_journal_volume                          ?
_journal_page_first                      PB22
_journal_page_last                       ?
_journal_language                        English
loop_
 _publ_author_name
 _publ_author_address
'Stepien Damm J.'
;
Polish Academy of Sciences (PAN)
Trzebiatowski W. Institute of Low Temperature and Structure Research
Warsaw
Poland
;
'Kryvulya L.V.'
;
Lviv Ivan Franko State University
Department of Inorganic Chemistry
Lviv
Ukraine
;
'Bodak O.I.'
;
Lviv Ivan Franko State University
Department of Inorganic Chemistry
Lviv
Ukraine
;
'Muratova L.O.'
;
Lviv Danylo Halytsky National Medical University
Department of Chemistry
Lviv
Ukraine
;

# Standardized crystallographic data

_cell_length_a                           10.342
_cell_length_b                           4.102
_cell_length_c                           9.814
_cell_angle_alpha                        90
_cell_angle_beta                         118.44
_cell_angle_gamma                        90
_cell_volume                             366.1
_cell_formula_units_Z                    4
_space_group_IT_number                   12
_space_group_name_H-M_alt                'C 1 2/m 1'
loop_
 _space_group_symop_id
 _space_group_symop_operation_xyz
 1 'x, y, z'
 2 '-x, -y, -z'
 3 '-x, y, -z'
 4 'x, -y, z'
 5 '1/2+x, 1/2+y, z'
 6 '1/2-x, 1/2-y, -z'
 7 '1/2-x, 1/2+y, -z'
 8 '1/2+x, 1/2-y, z'
loop_
 _atom_type_symbol
 Si
 Tm
 Co
loop_
 _atom_site_label
 _atom_site_type_symbol
 _atom_site_symmetry_multiplicity
 _atom_site_Wyckoff_symbol
 _atom_site_fract_x
 _atom_site_fract_y
 _atom_site_fract_z
 _atom_site_occupancy
 Si2 Si 4 i 0.0443 0 0.3755 1
 Si1 Si 4 i 0.1494 0 0.0632 1
 Tm1 Tm 4 i 0.3117 0 0.4013 1
 Tm2 Tm 4 i 0.5009 0 0.1735 1
 Co Co 4 i 0.7711 0 0.1301 1


_exptl_crystal_colour                    ?
_exptl_crystal_density_meas              ?
_exptl_crystal_density_diffrn            8.22
_cell_measurement_temperature            ?
_cell_measurement_radiation              'X-rays, Mo Ka'
_cell_measurement_reflns_used            ?
_diffrn_ambient_temperature              ?
_diffrn_measurement_device               'automatic diffractometer'
_diffrn_measurement_device_type          'Kuma Diffraction KM-4'
_diffrn_radiation_type                   'X-rays, Mo Ka'
_diffrn_reflns_number                    ?
_exptl_absorpt_coefficient_mu            ?
_exptl_absorpt_correction_type           ?
_computing_structure_solution            'starting values from the literature'
_refine_ls_number_parameters             ?
_refine_ls_number_reflns                 ?
_refine_ls_R_factor_gt                   0.079
_refine_ls_wR_factor_gt                  ?

# End of data set 1008416

