##############################################################################
#                                                                            #
# Ce-Pd-Si         # CePdSi3                                       # 1008127 #
#                                                                            #
##############################################################################
#                                                                            #
#                           Pearson's Crystal Data                           #
#      Crystal Structure Database for Inorganic Compounds (on DVD)           #
#                              Release 2023/24                               #
#                  Editors: Pierre Villars and Karin Cenzual                 #
#                                                                            #
#   Copyright (c) ASM International & Material Phases Data System (MPDS),    #
# Switzerland & National Institute for Materials Science (NIMS), Japan, 2023 #
#                   All rights reserved. Version 2023.07                     #
#                                                                            #
#   This copy of Pearson's Crystal Data is licensed to:                      #
#   Hunter College - City University of New York                             #
#                                                                            #
##############################################################################

data_1008127
_audit_creation_date                     2024-02-24
_audit_creation_method
;
Pearson's Crystal Data browser
;
#_database_code_PCD                      1008127
_database_code_PDF                       ?

# Entry summary

_chemical_formula_structural             'Ce Pd Si~3~'
_chemical_formula_sum                    'Ce Pd Si3'
_chemical_name_mineral                   ?
_chemical_compound_source                ?
_chemical_name_structure_type            BaNiSn~3~,tI10,107
_chemical_formula_weight                 330.8

# Bibliographic data

_publ_section_title
'Isothermal Cross-section of the Ce-Pd-Si Phase Diagram at 600 \%C'           
_journal_coden_ASTM                      JALCEU
_journal_name_full                       'J. Alloys Compd.'
_journal_year                            2001
_journal_volume                          317/318
_journal_page_first                      320
_journal_page_last                       323
_journal_language                        English
loop_
 _publ_author_name
 _publ_author_address
'Seropegin Y.D.'
;
Moscow M.V. Lomonosov State University (MSU)
Department of Chemistry
Moscow
Russia
;
'Gribanov A.V.'
;
Moscow M.V. Lomonosov State University (MSU)
Department of Chemistry
Moscow
Russia
;
'Kubarev O.L.'
;
Moscow M.V. Lomonosov State University (MSU)
Department of Chemistry
Moscow
Russia
;
'Tursina A.I.'
;
Moscow M.V. Lomonosov State University (MSU)
Department of Chemistry
Moscow
Russia
;
'Bodak O.I.'
;
Lviv Ivan Franko State University
Department of Inorganic Chemistry
Lviv
Ukraine
;

# Standardized crystallographic data

_cell_length_a                           4.3209
_cell_length_b                           4.3209
_cell_length_c                           9.606
_cell_angle_alpha                        90
_cell_angle_beta                         90
_cell_angle_gamma                        90
_cell_volume                             179.3
_cell_formula_units_Z                    2
_space_group_IT_number                   107
_space_group_name_H-M_alt                'I 4 m m'
loop_
 _space_group_symop_id
 _space_group_symop_operation_xyz
 1 'x, y, z'
 2 '-x, -y, z'
 3 '-x, y, z'
 4 '-y, -x, z'
 5 '-y, x, z'
 6 'x, -y, z'
 7 'y, -x, z'
 8 'y, x, z'
 9 '1/2+x, 1/2+y, 1/2+z'
 10 '1/2-x, 1/2-y, 1/2+z'
 11 '1/2-x, 1/2+y, 1/2+z'
 12 '1/2-y, 1/2-x, 1/2+z'
 13 '1/2-y, 1/2+x, 1/2+z'
 14 '1/2+x, 1/2-y, 1/2+z'
 15 '1/2+y, 1/2-x, 1/2+z'
 16 '1/2+y, 1/2+x, 1/2+z'

# Atomic positions taken from type-defining entry

loop_
 _atom_type_symbol
 Si
 Pd
 Ce
loop_
 _atom_site_label
 _atom_site_type_symbol
 _atom_site_symmetry_multiplicity
 _atom_site_Wyckoff_symbol
 _atom_site_fract_x
 _atom_site_fract_y
 _atom_site_fract_z
 _atom_site_occupancy
 Si1 Si 4 b 0 0.5 0.3253 1
 Si2 Si 2 a 0 0 0.0 1
 Pd1 Pd 2 a 0 0 0.2313 1
 Ce1 Ce 2 a 0 0 0.5759 1


_exptl_crystal_colour                    ?
_exptl_crystal_density_meas              ?
_exptl_crystal_density_diffrn            6.13
_cell_measurement_temperature            ?
_cell_measurement_radiation              X-rays
_cell_measurement_reflns_used            ?
_diffrn_ambient_temperature              ?
_diffrn_measurement_device               ?
_diffrn_measurement_device_type          ?
_diffrn_radiation_type                   ?
_diffrn_reflns_number                    ?
_exptl_absorpt_coefficient_mu            ?
_exptl_absorpt_correction_type           ?
_computing_structure_solution            ?
_refine_ls_number_parameters             ?
_refine_ls_number_reflns                 ?
_refine_ls_R_factor_gt                   ?
_refine_ls_wR_factor_gt                  ?

# End of data set 1008127

