##############################################################################
#                                                                            #
# In-Ni-Y          # YNiIn2                                        # 1008106 #
#                                                                            #
##############################################################################
#                                                                            #
#                           Pearson's Crystal Data                           #
#      Crystal Structure Database for Inorganic Compounds (on DVD)           #
#                              Release 2023/24                               #
#                  Editors: Pierre Villars and Karin Cenzual                 #
#                                                                            #
#   Copyright (c) ASM International & Material Phases Data System (MPDS),    #
# Switzerland & National Institute for Materials Science (NIMS), Japan, 2023 #
#                   All rights reserved. Version 2023.07                     #
#                                                                            #
#   This copy of Pearson's Crystal Data is licensed to:                      #
#   Hunter College - City University of New York                             #
#                                                                            #
##############################################################################

data_1008106
_audit_creation_date                     2024-02-25
_audit_creation_method
;
Pearson's Crystal Data browser
;
#_database_code_PCD                      1008106
_database_code_PDF                       ?

# Entry summary

_chemical_formula_structural             'Y Ni In~2~'
_chemical_formula_sum                    'In2 Ni Y'
_chemical_name_mineral                   ?
_chemical_compound_source                ?
_chemical_name_structure_type            MgCuAl~2~,oS16,63
_chemical_formula_weight                 377.2

# Bibliographic data

_publ_section_title
'The crystal structure of RNiIn~2~ (R= Y, Gd, Tb, Dy) and CaNiIn~2~ compounds'
_journal_coden_ASTM                      DANND6
_journal_name_full                       'Dopov. Akad. Nauk Ukr. RSR, Ser. B'
_journal_year                            1987
_journal_volume                          ?
_journal_issue                           12
_journal_page_first                      44
_journal_page_last                       46
_journal_language                        Ukrainian
loop_
 _publ_author_name
 _publ_author_address
'Zaremba V.I.'
;
Lviv Ivan Franko State University
Lviv
Ukraine
;
'Zakharko O.Y.'
;
Lviv Ivan Franko State University
Lviv
Ukraine
;
'Kalychak Y.M.'
;
Lviv Ivan Franko State University
Department of Inorganic Chemistry
Lviv
Ukraine
;
'Bodak O.I.'
;
Lviv Ivan Franko State University
Department of Inorganic Chemistry
Lviv
Ukraine
;

# Standardized crystallographic data

_cell_length_a                           4.314
_cell_length_b                           10.406
_cell_length_c                           7.276
_cell_angle_alpha                        90
_cell_angle_beta                         90
_cell_angle_gamma                        90
_cell_volume                             326.6
_cell_formula_units_Z                    4
_space_group_IT_number                   63
_space_group_name_H-M_alt                'C m c m'
loop_
 _space_group_symop_id
 _space_group_symop_operation_xyz
 1 'x, y, z'
 2 '-x, -y, -z'
 3 '-x, -y, 1/2+z'
 4 '-x, y, 1/2-z'
 5 '-x, y, z'
 6 'x, -y, -z'
 7 'x, -y, 1/2+z'
 8 'x, y, 1/2-z'
 9 '1/2+x, 1/2+y, z'
 10 '1/2-x, 1/2-y, -z'
 11 '1/2-x, 1/2-y, 1/2+z'
 12 '1/2-x, 1/2+y, 1/2-z'
 13 '1/2-x, 1/2+y, z'
 14 '1/2+x, 1/2-y, -z'
 15 '1/2+x, 1/2-y, 1/2+z'
 16 '1/2+x, 1/2+y, 1/2-z'
loop_
 _atom_type_symbol
 In
 Y
 Ni
loop_
 _atom_site_label
 _atom_site_type_symbol
 _atom_site_symmetry_multiplicity
 _atom_site_Wyckoff_symbol
 _atom_site_fract_x
 _atom_site_fract_y
 _atom_site_fract_z
 _atom_site_occupancy
 In In 8 f 0 0.144 0.052 1
 Y Y 4 c 0 0.431 0.25 1
 Ni Ni 4 c 0 0.711 0.25 1


_exptl_crystal_colour                    ?
_exptl_crystal_density_meas              ?
_exptl_crystal_density_diffrn            7.67
_cell_measurement_temperature            ?
_cell_measurement_radiation              'X-rays, Cu Ka'
_cell_measurement_reflns_used            ?
_diffrn_ambient_temperature              ?
_diffrn_measurement_device               photographs
_diffrn_measurement_device_type          ?
_diffrn_radiation_type                   'X-rays, Mo Ka'
_diffrn_reflns_number                    ?
_exptl_absorpt_coefficient_mu            ?
_exptl_absorpt_correction_type           ?
_computing_structure_solution
'starting values from the literature, Fourier synthesis'                      
_refine_ls_number_parameters             ?
_refine_ls_number_reflns                 31
_refine_ls_R_factor_gt                   0.125
_refine_ls_wR_factor_gt                  ?

# End of data set 1008106

