##############################################################################
#                                                                            #
# In-Ni-Tb         # TbNiIn2                                       # 1008107 #
#                                                                            #
##############################################################################
#                                                                            #
#                           Pearson's Crystal Data                           #
#      Crystal Structure Database for Inorganic Compounds (on DVD)           #
#                              Release 2023/24                               #
#                  Editors: Pierre Villars and Karin Cenzual                 #
#                                                                            #
#   Copyright (c) ASM International & Material Phases Data System (MPDS),    #
# Switzerland & National Institute for Materials Science (NIMS), Japan, 2023 #
#                   All rights reserved. Version 2023.07                     #
#                                                                            #
#   This copy of Pearson's Crystal Data is licensed to:                      #
#   Hunter College - City University of New York                             #
#                                                                            #
##############################################################################

data_1008107
_audit_creation_date                     2024-02-25
_audit_creation_method
;
Pearson's Crystal Data browser
;
#_database_code_PCD                      1008107
_database_code_PDF                       04-017-7533

# Entry summary

_chemical_formula_structural             'Tb Ni In~2~'
_chemical_formula_sum                    'In2 Ni Tb'
_chemical_name_mineral                   ?
_chemical_compound_source                ?
_chemical_name_structure_type            MgCuAl~2~,oS16,63
_chemical_formula_weight                 447.3

# Bibliographic data

_publ_section_title
'The crystal structure of RNiIn~2~ (R= Y, Gd, Tb, Dy) and CaNiIn~2~ compounds'
_journal_coden_ASTM                      DANND6
_journal_name_full                       'Dopov. Akad. Nauk Ukr. RSR, Ser. B'
_journal_year                            1987
_journal_volume                          ?
_journal_issue                           12
_journal_page_first                      44
_journal_page_last                       46
_journal_language                        Ukrainian
loop_
 _publ_author_name
 _publ_author_address
'Zaremba V.I.'
;
Lviv Ivan Franko State University
Lviv
Ukraine
;
'Zakharko O.Y.'
;
Lviv Ivan Franko State University
Lviv
Ukraine
;
'Kalychak Y.M.'
;
Lviv Ivan Franko State University
Department of Inorganic Chemistry
Lviv
Ukraine
;
'Bodak O.I.'
;
Lviv Ivan Franko State University
Department of Inorganic Chemistry
Lviv
Ukraine
;

# Standardized crystallographic data

_cell_length_a                           4.328
_cell_length_b                           10.423
_cell_length_c                           7.303
_cell_angle_alpha                        90
_cell_angle_beta                         90
_cell_angle_gamma                        90
_cell_volume                             329.4
_cell_formula_units_Z                    4
_space_group_IT_number                   63
_space_group_name_H-M_alt                'C m c m'
loop_
 _space_group_symop_id
 _space_group_symop_operation_xyz
 1 'x, y, z'
 2 '-x, -y, -z'
 3 '-x, -y, 1/2+z'
 4 '-x, y, 1/2-z'
 5 '-x, y, z'
 6 'x, -y, -z'
 7 'x, -y, 1/2+z'
 8 'x, y, 1/2-z'
 9 '1/2+x, 1/2+y, z'
 10 '1/2-x, 1/2-y, -z'
 11 '1/2-x, 1/2-y, 1/2+z'
 12 '1/2-x, 1/2+y, 1/2-z'
 13 '1/2-x, 1/2+y, z'
 14 '1/2+x, 1/2-y, -z'
 15 '1/2+x, 1/2-y, 1/2+z'
 16 '1/2+x, 1/2+y, 1/2-z'
loop_
 _atom_type_symbol
 In
 Tb
 Ni
loop_
 _atom_site_label
 _atom_site_type_symbol
 _atom_site_symmetry_multiplicity
 _atom_site_Wyckoff_symbol
 _atom_site_fract_x
 _atom_site_fract_y
 _atom_site_fract_z
 _atom_site_occupancy
 In In 8 f 0 0.1411 0.0506 1
 Tb Tb 4 c 0 0.4295 0.25 1
 Ni Ni 4 c 0 0.7156 0.25 1


_exptl_crystal_colour                    ?
_exptl_crystal_density_meas              ?
_exptl_crystal_density_diffrn            9.02
_cell_measurement_temperature            ?
_cell_measurement_radiation              'X-rays, Cu Ka'
_cell_measurement_reflns_used            ?
_diffrn_ambient_temperature              ?
_diffrn_measurement_device               'automatic diffractometer'
_diffrn_measurement_device_type          DRON-3
_diffrn_radiation_type                   'X-rays, Cu Ka'
_diffrn_reflns_number                    ?
_exptl_absorpt_coefficient_mu            ?
_exptl_absorpt_correction_type           ?
_computing_structure_solution            'starting values from the literature'
_refine_ls_number_parameters             ?
_refine_ls_number_reflns                 103
_refine_ls_R_factor_gt                   ?
_refine_ls_wR_factor_gt                  ?
_pd_proc_ls_proof_R_factor               ?
_pd_proc_ls_proof_wR_factor              ?
_refine_ls_R_I_factor                    0.087

# Published diffraction lines

loop_
 _refln_index_h
 _refln_index_k
 _refln_index_l
 _refln_d_spacing
 _refln_intensity_meas
 1 1 1 3.507 69
 0 2 2 2.99 51
 1 3 0 2.71 1000
 1 1 2 2.696 ?
 0 4 0 2.605 134
 1 3 1 2.54 445
 0 4 1 2.455 201
 0 2 3 2.205 230
 1 3 2 2.176 429
 2 0 0 2.164 ?
 0 4 2 2.121 96
 1 1 3 2.079 94
 0 0 4 1.826 55
 1 5 1 1.82 ?
 1 3 3 1.811 23
 0 4 3 1.779 8
 2 2 2 1.753 14
 0 6 1 1.69 6
 1 5 2 1.67 76
 2 4 0 1.665 ?
 1 1 4 1.661 ?
 2 4 1 1.623 84
 0 6 2 1.569 60
 2 2 3 1.545 126
 2 4 2 1.515 73
 1 3 4 1.514 ?
 0 4 4 1.495 119
 1 5 3 1.487 ?
 0 6 3 1.414 149
 1 7 0 1.408 ?
 0 2 5 1.406 ?
 3 1 1 1.402 ?
 2 0 4 1.395 39
 2 4 3 1.374 38
 1 1 5 1.372 ?
 3 3 0 1.332 66
 1 7 2 1.314 42
 3 3 1 1.311 ?
 1 5 4 1.309 ?
 1 3 5 1.286 69
 0 8 1 1.283 ?
 0 4 5 1.274 79
 2 6 2 1.27 ?
 3 3 2 1.252 6
 3 1 3 1.232 9
 2 4 4 1.23 ?
 0 8 2 1.227 10
 1 7 3 1.219 5
 0 0 6 1.217 ?
 3 5 0 1.186 8
 0 2 6 1.185 ?
 2 6 3 1.184 ?
 2 2 5 1.179 8
 1 5 5 1.153 9
 3 5 2 1.128 3
 1 9 0 1.119 10
 0 6 5 1.118 ?
 2 8 0 1.116 26
 1 7 4 1.115 ?
 2 4 5 1.098 37
 4 0 0 1.082 9
 1 9 2 1.07 60
 2 8 2 1.068 ?
 3 5 3 1.066 ?
 2 0 6 1.061 6
 0 8 4 1.061 ?
 4 0 2 1.037 24
 3 7 0 1.036 ?
 0 10 1 1.032 4
 0 2 7 1.023 26
 3 1 5 1.022 ?
 4 2 2 1.017 28
 1 9 3 1.016 ?
 2 8 3 1.015 ?

# End of data set 1008107

