##############################################################################
#                                                                            #
# Co-La-Si         # LaCoSi3                                       # 1008864 #
#                                                                            #
##############################################################################
#                                                                            #
#                           Pearson's Crystal Data                           #
#      Crystal Structure Database for Inorganic Compounds (on DVD)           #
#                              Release 2023/24                               #
#                  Editors: Pierre Villars and Karin Cenzual                 #
#                                                                            #
#   Copyright (c) ASM International & Material Phases Data System (MPDS),    #
# Switzerland & National Institute for Materials Science (NIMS), Japan, 2023 #
#                   All rights reserved. Version 2023.07                     #
#                                                                            #
#   This copy of Pearson's Crystal Data is licensed to:                      #
#   Hunter College - City University of New York                             #
#                                                                            #
##############################################################################

data_1008864
_audit_creation_date                     2024-02-24
_audit_creation_method
;
Pearson's Crystal Data browser
;
#_database_code_PCD                      1008864
_database_code_PDF                       04-021-9287

# Entry summary

_chemical_formula_structural             'La Co Si~3~'
_chemical_formula_sum                    'Co La Si3'
_chemical_name_mineral                   ?
_chemical_compound_source                ?
_chemical_name_structure_type            BaNiSn~3~,tI10,107
_chemical_formula_weight                 282.1

# Bibliographic data

_publ_section_title
'Some ternary systems with rare-earth metals'                                 
_journal_coden_ASTM                      47SFA4
_journal_name_full                       'Fazovye Ravnovesiya Met. Splavakh'
_journal_year                            1981
_journal_volume                          ?
_journal_page_first                      57
_journal_page_last                       63
_journal_language                        Russian
loop_
 _publ_author_name
 _publ_author_address
'Bodak O.I.'
;
Lviv Ivan Franko State University
Department of Inorganic Chemistry
Lviv
Ukraine
;
'Pecharskii V.K.'
;
Lviv Ivan Franko State University
Lviv
Ukraine
;
'Kalychak Y.M.'
;
Lviv Ivan Franko State University
Lviv
Ukraine
;
'Kharchenko O.I.'
;
Russian Academy of Sciences (RAS)
Baikov A.A. Institute of Metallurgy
Moscow
Russia
;
'Mokra I.R.'
;
Lviv Ivan Franko State University
Department of Inorganic Chemistry
Lviv
Ukraine
;
'Muratova L.O.'
;
Lviv State Medical Institute
Lviv
Ukraine
;
'Beryezyuk D.A.'
'Shyevchuk M.M.'

# Standardized crystallographic data

_cell_length_a                           4.147
_cell_length_b                           4.147
_cell_length_c                           9.569
_cell_angle_alpha                        90
_cell_angle_beta                         90
_cell_angle_gamma                        90
_cell_volume                             164.6
_cell_formula_units_Z                    2
_space_group_IT_number                   107
_space_group_name_H-M_alt                'I 4 m m'
loop_
 _space_group_symop_id
 _space_group_symop_operation_xyz
 1 'x, y, z'
 2 '-x, -y, z'
 3 '-x, y, z'
 4 '-y, -x, z'
 5 '-y, x, z'
 6 'x, -y, z'
 7 'y, -x, z'
 8 'y, x, z'
 9 '1/2+x, 1/2+y, 1/2+z'
 10 '1/2-x, 1/2-y, 1/2+z'
 11 '1/2-x, 1/2+y, 1/2+z'
 12 '1/2-y, 1/2-x, 1/2+z'
 13 '1/2-y, 1/2+x, 1/2+z'
 14 '1/2+x, 1/2-y, 1/2+z'
 15 '1/2+y, 1/2-x, 1/2+z'
 16 '1/2+y, 1/2+x, 1/2+z'

# Atomic positions taken from type-defining entry

loop_
 _atom_type_symbol
 Si
 Co
 La
loop_
 _atom_site_label
 _atom_site_type_symbol
 _atom_site_symmetry_multiplicity
 _atom_site_Wyckoff_symbol
 _atom_site_fract_x
 _atom_site_fract_y
 _atom_site_fract_z
 _atom_site_occupancy
 Si1 Si 4 b 0 0.5 0.3253 1
 Si2 Si 2 a 0 0 0.0 1
 Co1 Co 2 a 0 0 0.2313 1
 La1 La 2 a 0 0 0.5759 1


_exptl_crystal_colour                    ?
_exptl_crystal_density_meas              ?
_exptl_crystal_density_diffrn            5.69
_cell_measurement_temperature            ?
_cell_measurement_radiation              ?
_cell_measurement_reflns_used            ?
_diffrn_ambient_temperature              ?
_diffrn_measurement_device               ?
_diffrn_measurement_device_type          ?
_diffrn_radiation_type                   ?
_diffrn_reflns_number                    ?
_exptl_absorpt_coefficient_mu            ?
_exptl_absorpt_correction_type           ?
_computing_structure_solution            ?
_refine_ls_number_parameters             ?
_refine_ls_number_reflns                 ?
_refine_ls_R_factor_gt                   ?
_refine_ls_wR_factor_gt                  ?

# End of data set 1008864

