##############################################################################
#                                                                            #
# Ce-Rh-Si         # CeRh2Si orth                                  # 1008409 #
#                                                                            #
##############################################################################
#                                                                            #
#                           Pearson's Crystal Data                           #
#      Crystal Structure Database for Inorganic Compounds (on DVD)           #
#                              Release 2023/24                               #
#                  Editors: Pierre Villars and Karin Cenzual                 #
#                                                                            #
#   Copyright (c) ASM International & Material Phases Data System (MPDS),    #
# Switzerland & National Institute for Materials Science (NIMS), Japan, 2023 #
#                   All rights reserved. Version 2023.07                     #
#                                                                            #
#   This copy of Pearson's Crystal Data is licensed to:                      #
#   Hunter College - City University of New York                             #
#                                                                            #
##############################################################################

data_1008409
_audit_creation_date                     2024-02-24
_audit_creation_method
;
Pearson's Crystal Data browser
;
#_database_code_PCD                      1008409
_database_code_PDF                       ?

# Entry summary

_chemical_formula_structural             'Ce Rh~2~ Si'
_chemical_formula_sum                    'Ce Rh2 Si'
_chemical_name_mineral                   ?
_chemical_compound_source                ?
_chemical_name_structure_type            CeNiSi~2~,oS16,63
_chemical_formula_weight                 374.0

# Bibliographic data

_publ_section_title
'Crystal structure of the new compound CeRh~2~Si'                             
_journal_coden_ASTM                      ICCIC8
_journal_name_full
'Abstr. 8th Int. Conf. Crystal Chem. Intermet. Compd.'                        
_journal_year                            2002
_journal_volume                          ?
_journal_page_first                      81
_journal_page_last                       ?
_journal_language                        English
loop_
 _publ_author_name
 _publ_author_address
'Tursina A.I.'
;
Moscow M.V. Lomonosov State University (MSU)
Department of Chemistry
Moscow
Russia
;
'Gribanov A.V.'
;
Moscow M.V. Lomonosov State University (MSU)
Department of Chemistry
Moscow
Russia
;
'Seropegin Y.D.'
;
Moscow M.V. Lomonosov State University (MSU)
Department of Chemistry
Moscow
Russia
;
'Novitskii A.A.'
;
Moscow M.V. Lomonosov State University (MSU)
Department of Chemistry
Moscow
Russia
;
'Bodak O.I.'
;
Lviv Ivan Franko National University
Department of Inorganic Chemistry
Lviv
Ukraine
;

# Standardized crystallographic data

_cell_length_a                           4.0413
_cell_length_b                           17.73
_cell_length_c                           4.0675
_cell_angle_alpha                        90
_cell_angle_beta                         90
_cell_angle_gamma                        90
_cell_volume                             291.4
_cell_formula_units_Z                    4
_space_group_IT_number                   63
_space_group_name_H-M_alt                'C m c m'
loop_
 _space_group_symop_id
 _space_group_symop_operation_xyz
 1 'x, y, z'
 2 '-x, -y, -z'
 3 '-x, -y, 1/2+z'
 4 '-x, y, 1/2-z'
 5 '-x, y, z'
 6 'x, -y, -z'
 7 'x, -y, 1/2+z'
 8 'x, y, 1/2-z'
 9 '1/2+x, 1/2+y, z'
 10 '1/2-x, 1/2-y, -z'
 11 '1/2-x, 1/2-y, 1/2+z'
 12 '1/2-x, 1/2+y, 1/2-z'
 13 '1/2-x, 1/2+y, z'
 14 '1/2+x, 1/2-y, -z'
 15 '1/2+x, 1/2-y, 1/2+z'
 16 '1/2+x, 1/2+y, 1/2-z'
loop_
 _atom_type_symbol
 Rh
 Si
 Ce
loop_
 _atom_site_label
 _atom_site_type_symbol
 _atom_site_symmetry_multiplicity
 _atom_site_Wyckoff_symbol
 _atom_site_fract_x
 _atom_site_fract_y
 _atom_site_fract_z
 _atom_site_occupancy
 Rh2 Rh 4 c 0 0.04661 0.25 1
 Si4 Si 4 c 0 0.1797 0.25 1
 Ce1 Ce 4 c 0 0.40103 0.25 1
 Rh3 Rh 4 c 0 0.74981 0.25 1


_exptl_crystal_colour                    ?
_exptl_crystal_density_meas              ?
_exptl_crystal_density_diffrn            8.52
_cell_measurement_temperature            ?
_cell_measurement_radiation              'X-rays, Mo Ka'
_cell_measurement_reflns_used            ?
_diffrn_ambient_temperature              ?
_diffrn_measurement_device               'automatic diffractometer'
_diffrn_measurement_device_type          'Enraf-Nonius CAD4'
_diffrn_radiation_type                   'X-rays, Mo Ka'
_diffrn_reflns_number                    ?
_diffrn_reflns_theta_min                 2.3
_diffrn_reflns_theta_max                 36.7
_exptl_absorpt_coefficient_mu            ?
_exptl_absorpt_correction_type           ?
_computing_structure_solution            'direct methods, Fourier synthesis'
_refine_ls_number_parameters             17
_refine_ls_number_reflns                 303
_refine_ls_R_factor_gt                   0.0379
_refine_ls_wR_factor_gt                  ?

# End of data set 1008409

