##############################################################################
#                                                                            #
# Ge-Ho-Ru         # HoRuGe                                        # 1008489 #
#                                                                            #
##############################################################################
#                                                                            #
#                           Pearson's Crystal Data                           #
#      Crystal Structure Database for Inorganic Compounds (on DVD)           #
#                              Release 2023/24                               #
#                  Editors: Pierre Villars and Karin Cenzual                 #
#                                                                            #
#   Copyright (c) ASM International & Material Phases Data System (MPDS),    #
# Switzerland & National Institute for Materials Science (NIMS), Japan, 2023 #
#                   All rights reserved. Version 2023.07                     #
#                                                                            #
#   This copy of Pearson's Crystal Data is licensed to:                      #
#   Hunter College - City University of New York                             #
#                                                                            #
##############################################################################

data_1008489
_audit_creation_date                     2024-02-25
_audit_creation_method
;
Pearson's Crystal Data browser
;
#_database_code_PCD                      1008489
_database_code_PDF                       04-025-0125

# Entry summary

_chemical_formula_structural             'Ho Ru Ge'
_chemical_formula_sum                    'Ge Ho Ru'
_chemical_name_mineral                   ?
_chemical_compound_source                ?
_chemical_name_structure_type            TiNiSi,oP12,62
_chemical_formula_weight                 338.6

# Bibliographic data

_publ_section_title
'New ternary holmium-ruthenium-germanides: HoRuGe and Ho~3~Ru~2~Ge~3~'        
_journal_coden_ASTM                      JALCEU
_journal_name_full                       'J. Alloys Compd.'
_journal_year                            1994
_journal_volume                          209
_journal_page_first                      107
_journal_page_last                       109
_journal_language                        English
loop_
 _publ_author_name
 _publ_author_address
'Sologub O.L.'
;
Lviv Ivan Franko State University
Department of Inorganic Chemistry
Lviv
Ukraine
;
'Prots Y.M.'
;
Lviv Ivan Franko State University
Department of Inorganic Chemistry
Lviv
Ukraine
;
'Salamakha P.S.'
;
Lviv Ivan Franko State University
Department of Inorganic Chemistry
Lviv
Ukraine
;
'Bodak O.I.'
;
Lviv Ivan Franko State University
Department of Inorganic Chemistry
Lviv
Ukraine
;

# Standardized crystallographic data

_cell_length_a                           6.98
_cell_length_b                           4.351
_cell_length_c                           7.281
_cell_angle_alpha                        90
_cell_angle_beta                         90
_cell_angle_gamma                        90
_cell_volume                             221.12
_cell_formula_units_Z                    4
_space_group_IT_number                   62
_space_group_name_H-M_alt                'P n m a'
loop_
 _space_group_symop_id
 _space_group_symop_operation_xyz
 1 'x, y, z'
 2 '1/2-x, -y, 1/2+z'
 3 '1/2-x, 1/2+y, 1/2+z'
 4 '-x, -y, -z'
 5 '-x, 1/2+y, -z'
 6 '1/2+x, 1/2-y, 1/2-z'
 7 '1/2+x, y, 1/2-z'
 8 'x, 1/2-y, z'
loop_
 _atom_type_symbol
 Ho
 Ru
 Ge
loop_
 _atom_site_label
 _atom_site_type_symbol
 _atom_site_symmetry_multiplicity
 _atom_site_Wyckoff_symbol
 _atom_site_fract_x
 _atom_site_fract_y
 _atom_site_fract_z
 _atom_site_occupancy
 Ho Ho 4 c -0.0085 0.25 0.69089 1
 Ru Ru 4 c 0.1562 0.25 0.0638 1
 Ge Ge 4 c 0.2958 0.25 0.3929 1


_exptl_crystal_colour                    ?
_exptl_crystal_density_meas              ?
_exptl_crystal_density_diffrn            10.17
_cell_measurement_temperature            ?
_cell_measurement_radiation              'X-rays, Mo Ka'
_cell_measurement_wavelength             0.71069
_cell_measurement_reflns_used            ?
_diffrn_ambient_temperature              ?
_diffrn_measurement_device               'automatic diffractometer'
_diffrn_measurement_device_type          'Nicolet R3'
_diffrn_radiation_type                   'X-rays, Mo Ka'
_diffrn_radiation_wavelength             0.71069
_diffrn_reflns_number                    ?
_exptl_absorpt_coefficient_mu            57.14
_exptl_absorpt_correction_type           empirical
_computing_structure_solution            'direct methods, Fourier synthesis'
_refine_ls_number_parameters             ?
_refine_ls_number_reflns                 278
_refine_ls_R_factor_gt                   0.0270
_refine_ls_wR_factor_gt                  0.0296

# End of data set 1008489

