##############################################################################
#                                                                            #
# Co-Ge-Tb         # Tb2CoGe2                                      # 1008070 #
#                                                                            #
##############################################################################
#                                                                            #
#                           Pearson's Crystal Data                           #
#      Crystal Structure Database for Inorganic Compounds (on DVD)           #
#                              Release 2023/24                               #
#                  Editors: Pierre Villars and Karin Cenzual                 #
#                                                                            #
#   Copyright (c) ASM International & Material Phases Data System (MPDS),    #
# Switzerland & National Institute for Materials Science (NIMS), Japan, 2023 #
#                   All rights reserved. Version 2023.07                     #
#                                                                            #
#   This copy of Pearson's Crystal Data is licensed to:                      #
#   Hunter College - City University of New York                             #
#                                                                            #
##############################################################################

data_1008070
_audit_creation_date                     2024-02-24
_audit_creation_method
;
Pearson's Crystal Data browser
;
#_database_code_PCD                      1008070
_database_code_PDF                       04-011-1553

# Entry summary

_chemical_formula_structural             'Tb~2~ Co Ge~2~'
_chemical_formula_sum                    'Co Ge2 Tb2'
_chemical_name_mineral                   ?
_chemical_compound_source                ?
_chemical_name_structure_type            Sc~2~CoSi~2~,mS20,12
_chemical_formula_weight                 522.0

# Bibliographic data

_publ_section_title
'The crystal structure of the compound Tb~2~CoGe~2~'                          
_journal_coden_ASTM                      RMLYAQ
_journal_name_full                       'Russ. Metall.'
_journal_year                            1986
_journal_volume                          ?
_journal_issue                           4
_journal_page_first                      220
_journal_page_last                       222
_journal_language                        English
loop_
 _publ_author_name
 _publ_author_address
'Bodak O.I.'
;
Lviv Ivan Franko State University
Department of Inorganic Chemistry
Lviv
Ukraine
;
'Pecharskii V.K.'
;
Lviv Ivan Franko State University
Department of Inorganic Chemistry
Lviv
Ukraine
;
'Starodub P.K.'
;
Lviv Ivan Franko State University
Department of Inorganic Chemistry
Lviv
Ukraine
;
'Salamakha P.S.'
;
Lviv Ivan Franko State University
Department of Inorganic Chemistry
Lviv
Ukraine
;
'Mrooz O.Y.'
;
Lviv Ivan Franko State University
Lviv
Ukraine
;
'Bruskov V.A.'
;
Lviv Ivan Franko State University
Lviv
Ukraine
;

# Standardized crystallographic data

_cell_length_a                           10.569
_cell_length_b                           4.212
_cell_length_c                           10.209
_cell_angle_alpha                        90
_cell_angle_beta                         118.18
_cell_angle_gamma                        90
_cell_volume                             400.6
_cell_formula_units_Z                    4
_space_group_IT_number                   12
_space_group_name_H-M_alt                'C 1 2/m 1'
loop_
 _space_group_symop_id
 _space_group_symop_operation_xyz
 1 'x, y, z'
 2 '-x, -y, -z'
 3 '-x, y, -z'
 4 'x, -y, z'
 5 '1/2+x, 1/2+y, z'
 6 '1/2-x, 1/2-y, -z'
 7 '1/2-x, 1/2+y, -z'
 8 '1/2+x, 1/2-y, z'
loop_
 _atom_type_symbol
 Tb
 Co
 Ge
loop_
 _atom_site_label
 _atom_site_type_symbol
 _atom_site_symmetry_multiplicity
 _atom_site_Wyckoff_symbol
 _atom_site_fract_x
 _atom_site_fract_y
 _atom_site_fract_z
 _atom_site_occupancy
 Tb2 Tb 4 i 0.0043 0 0.3308 1
 Tb1 Tb 4 i 0.187 0 0.108 1
 Co Co 4 i 0.275 0 0.638 1
 Ge2 Ge 4 i 0.3484 0 0.4336 1
 Ge1 Ge 4 i 0.4873 0 0.1235 1


_exptl_crystal_colour                    ?
_exptl_crystal_density_meas              ?
_exptl_crystal_density_diffrn            8.65
_cell_measurement_temperature            ?
_cell_measurement_radiation              'X-rays, Mo Ka'
_cell_measurement_reflns_used            ?
_diffrn_ambient_temperature              ?
_diffrn_measurement_device               'automatic diffractometer'
_diffrn_measurement_device_type          'Syntex P21'
_diffrn_radiation_type                   'X-rays, Mo Ka'
_diffrn_reflns_number                    ?
_exptl_absorpt_coefficient_mu            ?
_exptl_absorpt_correction_type           ?
_computing_structure_solution            'Patterson and Fourier synthesis'
_refine_ls_number_parameters             ?
_refine_ls_number_reflns                 402
_refine_ls_R_factor_gt                   0.068
_refine_ls_wR_factor_gt                  ?

# End of data set 1008070

