##############################################################################
#                                                                            #
# Ge-Ru-Sm         # Sm3Ru2Ge2                                     # 1008167 #
#                                                                            #
##############################################################################
#                                                                            #
#                           Pearson's Crystal Data                           #
#      Crystal Structure Database for Inorganic Compounds (on DVD)           #
#                              Release 2023/24                               #
#                  Editors: Pierre Villars and Karin Cenzual                 #
#                                                                            #
#   Copyright (c) ASM International & Material Phases Data System (MPDS),    #
# Switzerland & National Institute for Materials Science (NIMS), Japan, 2023 #
#                   All rights reserved. Version 2023.07                     #
#                                                                            #
#   This copy of Pearson's Crystal Data is licensed to:                      #
#   Hunter College - City University of New York                             #
#                                                                            #
##############################################################################

data_1008167
_audit_creation_date                     2024-02-25
_audit_creation_method
;
Pearson's Crystal Data browser
;
#_database_code_PCD                      1008167
_database_code_PDF                       ?

# Entry summary

_chemical_formula_structural             'Sm~3~ Ru~2~ Ge~2~'
_chemical_formula_sum                    'Ge2 Ru2 Sm3'
_chemical_name_mineral                   ?
_chemical_compound_source                ?
_chemical_name_structure_type            La~3~Ni~2~Ga~2~,oP28,57
_chemical_formula_weight                 798.5

# Bibliographic data

_publ_section_title
'Phase equilibria in the Sm-(Ru,Rh)-(Si,Ge) systems at 870 K'                 
_journal_coden_ASTM                      JALCEU
_journal_name_full                       'J. Alloys Compd.'
_journal_year                            1996
_journal_volume                          234
_journal_page_first                      143
_journal_page_last                       150
_journal_language                        English
loop_
 _publ_author_name
 _publ_author_address
'Morozkin A.V.'
;
Moscow M.V. Lomonosov State University (MSU)
Department of Chemistry
Moscow
Russia
;
'Seropegin Y.D.'
;
Moscow M.V. Lomonosov State University (MSU)
Department of Chemistry
Moscow
Russia
;
'Bodak O.I.'
;
Lviv Ivan Franko State University
Department of Inorganic Chemistry
Lviv
Ukraine
;

# Standardized crystallographic data

_cell_length_a                           5.595
_cell_length_b                           7.799
_cell_length_c                           13.527
_cell_angle_alpha                        90
_cell_angle_beta                         90
_cell_angle_gamma                        90
_cell_volume                             590.3
_cell_formula_units_Z                    4
_space_group_IT_number                   57
_space_group_name_H-M_alt                'P b c m'
loop_
 _space_group_symop_id
 _space_group_symop_operation_xyz
 1 'x, y, z'
 2 '-x, -y, -z'
 3 '-x, -y, 1/2+z'
 4 '-x, 1/2+y, 1/2-z'
 5 '-x, 1/2+y, z'
 6 'x, 1/2-y, -z'
 7 'x, 1/2-y, 1/2+z'
 8 'x, y, 1/2-z'

# Atomic positions taken from type-defining entry

loop_
 _atom_type_symbol
 Sm
 Ru
 Ge
loop_
 _atom_site_label
 _atom_site_type_symbol
 _atom_site_symmetry_multiplicity
 _atom_site_Wyckoff_symbol
 _atom_site_fract_x
 _atom_site_fract_y
 _atom_site_fract_z
 _atom_site_occupancy
 Sm1 Sm 8 e 0.15 0.3957 0.0982 1
 Ru1 Ru 8 e 0.382 0.0345 0.0876 1
 Ge1 Ge 4 d 0.171 0.099 0.25 1
 Sm2 Sm 4 d 0.6546 0.2485 0.25 1
 Ge2 Ge 4 c 0.642 0.25 0 1


_exptl_crystal_colour                    ?
_exptl_crystal_density_meas              ?
_exptl_crystal_density_diffrn            8.99
_cell_measurement_temperature            ?
_cell_measurement_radiation              'X-rays, Cu Ka'
_cell_measurement_reflns_used            ?
_diffrn_ambient_temperature              ?
_diffrn_measurement_device               'automatic diffractometer'
_diffrn_measurement_device_type          ?
_diffrn_radiation_type                   ?
_diffrn_reflns_number                    ?
_exptl_absorpt_coefficient_mu            ?
_exptl_absorpt_correction_type           ?
_computing_structure_solution            ?
_refine_ls_number_parameters             ?
_refine_ls_number_reflns                 ?
_refine_ls_R_factor_gt                   ?
_refine_ls_wR_factor_gt                  ?

# End of data set 1008167

