##############################################################################
#                                                                            #
# Ge-Pt-Yb         # Yb2PtGe6                                      # 1008322 #
#                                                                            #
##############################################################################
#                                                                            #
#                           Pearson's Crystal Data                           #
#      Crystal Structure Database for Inorganic Compounds (on DVD)           #
#                              Release 2023/24                               #
#                  Editors: Pierre Villars and Karin Cenzual                 #
#                                                                            #
#   Copyright (c) ASM International & Material Phases Data System (MPDS),    #
# Switzerland & National Institute for Materials Science (NIMS), Japan, 2023 #
#                   All rights reserved. Version 2023.07                     #
#                                                                            #
#   This copy of Pearson's Crystal Data is licensed to:                      #
#   Hunter College - City University of New York                             #
#                                                                            #
##############################################################################

data_1008322
_audit_creation_date                     2024-02-25
_audit_creation_method
;
Pearson's Crystal Data browser
;
#_database_code_PCD                      1008322
_database_code_PDF                       04-021-9229

# Entry summary

_chemical_formula_structural             'Yb~2~ Pt Ge~6~'
_chemical_formula_sum                    'Ge6 Pt Yb2'
_chemical_name_mineral                   ?
_chemical_compound_source                ?
_chemical_name_structure_type            CuCe~2~Ge~6~,oS18,38
_chemical_formula_weight                 976.7

# Bibliographic data

_publ_section_title
'Investigation of the interaction of the components in the Yb-Pt-Ge system'   
_journal_coden_ASTM                      MUCBBG
_journal_name_full                       'Moscow Univ. Chem. Bull.'
_journal_year                            1994
_journal_volume                          49
_journal_issue                           1
_journal_page_first                      103
_journal_page_last                       105
_journal_language                        English
loop_
 _publ_author_name
 _publ_author_address
'Borisenko O.L.'
;
Moscow M.V. Lomonosov State University (MSU)
Moscow
Russia
;
'Bodak O.I.'
;
Lviv Ivan Franko State University
Department of Inorganic Chemistry
Lviv
Ukraine
;
'Seropegin Y.D.'
;
Moscow M.V. Lomonosov State University (MSU)
Department of Chemistry
Moscow
Russia
;

# Standardized crystallographic data

_cell_length_a                           3.949
_cell_length_b                           4.247
_cell_length_c                           19.75
_cell_angle_alpha                        90
_cell_angle_beta                         90
_cell_angle_gamma                        90
_cell_volume                             331.2
_cell_formula_units_Z                    2
_space_group_IT_number                   38
_space_group_name_H-M_alt                'A m m 2'
loop_
 _space_group_symop_id
 _space_group_symop_operation_xyz
 1 'x, y, z'
 2 '-x, -y, z'
 3 '-x, y, z'
 4 'x, -y, z'
 5 'x, 1/2+y, 1/2+z'
 6 '-x, 1/2-y, 1/2+z'
 7 '-x, 1/2+y, 1/2+z'
 8 'x, 1/2-y, 1/2+z'

# Atomic positions taken from type-defining entry

loop_
 _atom_type_symbol
 Yb
 Ge
 Pt
loop_
 _atom_site_label
 _atom_site_type_symbol
 _atom_site_symmetry_multiplicity
 _atom_site_Wyckoff_symbol
 _atom_site_fract_x
 _atom_site_fract_y
 _atom_site_fract_z
 _atom_site_occupancy
 Yb1 Yb 2 b 0.5 0 0.218 1
 Ge1 Ge 2 b 0.5 0 0.498 1
 Ge2 Ge 2 b 0.5 0 0.61 1
 Yb2 Yb 2 b 0.5 0 0.885 1
 Ge3 Ge 2 a 0 0 0.0 1
 Ge4 Ge 2 a 0 0 0.115 1
 Ge5 Ge 2 a 0 0 0.344 1
 Pt1 Pt 2 a 0 0 0.451 1
 Ge6 Ge 2 a 0 0 0.772 1


_exptl_crystal_colour                    ?
_exptl_crystal_density_meas              ?
_exptl_crystal_density_diffrn            9.79
_cell_measurement_temperature            ?
_cell_measurement_radiation              X-rays
_cell_measurement_reflns_used            ?
_diffrn_ambient_temperature              ?
_diffrn_measurement_device               'automatic diffractometer'
_diffrn_measurement_device_type          ?
_diffrn_radiation_type                   ?
_diffrn_reflns_number                    ?
_exptl_absorpt_coefficient_mu            ?
_exptl_absorpt_correction_type           ?
_computing_structure_solution            ?
_refine_ls_number_parameters             ?
_refine_ls_number_reflns                 ?
_refine_ls_R_factor_gt                   ?
_refine_ls_wR_factor_gt                  ?

# End of data set 1008322

