##############################################################################
#                                                                            #
# Ce-Rh-Si         # CeRh3Si2                                      # 1008442 #
#                                                                            #
##############################################################################
#                                                                            #
#                           Pearson's Crystal Data                           #
#      Crystal Structure Database for Inorganic Compounds (on DVD)           #
#                              Release 2023/24                               #
#                  Editors: Pierre Villars and Karin Cenzual                 #
#                                                                            #
#   Copyright (c) ASM International & Material Phases Data System (MPDS),    #
# Switzerland & National Institute for Materials Science (NIMS), Japan, 2023 #
#                   All rights reserved. Version 2023.07                     #
#                                                                            #
#   This copy of Pearson's Crystal Data is licensed to:                      #
#   Hunter College - City University of New York                             #
#                                                                            #
##############################################################################

data_1008442
_audit_creation_date                     2024-02-24
_audit_creation_method
;
Pearson's Crystal Data browser
;
#_database_code_PCD                      1008442
_database_code_PDF                       04-027-0685

# Entry summary

_chemical_formula_structural             'Ce Rh~3~ Si~2~'
_chemical_formula_sum                    'Ce Rh3 Si2'
_chemical_name_mineral                   ?
_chemical_compound_source                ?
_chemical_name_structure_type            ErRh~3~Si~2~,oI24,74
_chemical_formula_weight                 505.0
_chemical_melting_point                  1993

# Bibliographic data

_publ_section_title
'Crystal structure of the compound CeRh~3~Si~2~'                              
_journal_coden_ASTM                      VLDUAB
_journal_name_full
'Visn. Lviv. Derzh. Univ., Ser. Khim.'                                        
_journal_year                            2000
_journal_volume                          39
_journal_page_first                      96
_journal_page_last                       100
_journal_language                        English
loop_
 _publ_author_name
 _publ_author_address
'Gribanov A.V.'
;
Moscow M.V. Lomonosov State University (MSU)
Moscow
Russia
;
'Yatsenko A.V.'
;
Moscow M.V. Lomonosov State University (MSU)
Department of Chemistry
Moscow
Russia
;
'Seropegin Y.D.'
;
Moscow M.V. Lomonosov State University (MSU)
Department of Chemistry
Moscow
Russia
;
'Kurenbaeva Z.M.'
;
Moscow M.V. Lomonosov State University (MSU)
Moscow
Russia
;
'Kocherov N.'
;
Moscow M.V. Lomonosov State University (MSU)
Moscow
Russia
;
'Bodak O.I.'
;
Lviv Ivan Franko State University
Department of Inorganic Chemistry
Lviv
Ukraine
;

# Standardized crystallographic data

_cell_length_a                           7.125
_cell_length_b                           9.709
_cell_length_c                           5.592
_cell_angle_alpha                        90
_cell_angle_beta                         90
_cell_angle_gamma                        90
_cell_volume                             386.8
_cell_formula_units_Z                    4
_space_group_IT_number                   74
_space_group_name_H-M_alt                'I m m a'
loop_
 _space_group_symop_id
 _space_group_symop_operation_xyz
 1 'x, y, z'
 2 '-x, 1/2-y, z'
 3 '-x, -y, -z'
 4 '-x, 1/2+y, -z'
 5 '-x, y, z'
 6 'x, 1/2-y, z'
 7 'x, -y, -z'
 8 'x, 1/2+y, -z'
 9 '1/2+x, 1/2+y, 1/2+z'
 10 '1/2-x, 1-y, 1/2+z'
 11 '1/2-x, 1/2-y, 1/2-z'
 12 '1/2-x, 1+y, 1/2-z'
 13 '1/2-x, 1/2+y, 1/2+z'
 14 '1/2+x, 1-y, 1/2+z'
 15 '1/2+x, 1/2-y, 1/2-z'
 16 '1/2+x, 1+y, 1/2-z'
loop_
 _atom_type_symbol
 Si
 Rh
 Ce
loop_
 _atom_site_label
 _atom_site_type_symbol
 _atom_site_symmetry_multiplicity
 _atom_site_Wyckoff_symbol
 _atom_site_fract_x
 _atom_site_fract_y
 _atom_site_fract_z
 _atom_site_occupancy
 Si1 Si 8 h 0 0.0779 0.1999 1
 Rh2 Rh 8 f 0.2822 0 0 1
 Ce1 Ce 4 e 0 0.25 0.7165 1
 Rh1 Rh 4 c 0.25 0.25 0.25 1


_exptl_crystal_colour                    ?
_exptl_crystal_density_meas              ?
_exptl_crystal_density_diffrn            8.67
_cell_measurement_temperature            ?
_cell_measurement_radiation              'X-rays, Mo Ka'
_cell_measurement_wavelength             0.71073
_cell_measurement_reflns_used            ?
_diffrn_ambient_temperature              ?
_diffrn_measurement_device               'automatic diffractometer'
_diffrn_measurement_device_type          'Enraf-Nonius CAD4'
_diffrn_radiation_type                   'X-rays, Mo Ka'
_diffrn_radiation_wavelength             0.71073
_diffrn_reflns_number                    ?
_diffrn_reflns_theta_min                 2
_diffrn_reflns_theta_max                 35
_exptl_absorpt_coefficient_mu            24.50
_exptl_absorpt_correction_type           ?
_computing_structure_solution            'starting values from the literature'
_refine_ls_number_parameters             21
_refine_ls_number_reflns                 479
_refine_ls_R_factor_gt                   0.0308
_refine_ls_wR_factor_gt                  ?

# End of data set 1008442

