##############################################################################
#                                                                            #
# Ni-Sc-Si         # ScNiSi3                                       # 1008689 #
#                                                                            #
##############################################################################
#                                                                            #
#                           Pearson's Crystal Data                           #
#      Crystal Structure Database for Inorganic Compounds (on DVD)           #
#                              Release 2023/24                               #
#                  Editors: Pierre Villars and Karin Cenzual                 #
#                                                                            #
#   Copyright (c) ASM International & Material Phases Data System (MPDS),    #
# Switzerland & National Institute for Materials Science (NIMS), Japan, 2023 #
#                   All rights reserved. Version 2023.07                     #
#                                                                            #
#   This copy of Pearson's Crystal Data is licensed to:                      #
#   Hunter College - City University of New York                             #
#                                                                            #
##############################################################################

data_1008689
_audit_creation_date                     2024-02-25
_audit_creation_method
;
Pearson's Crystal Data browser
;
#_database_code_PCD                      1008689
_database_code_PDF                       ?

# Entry summary

_chemical_formula_structural             'Sc Ni Si~3~'
_chemical_formula_sum                    'Ni Sc Si3'
_chemical_name_mineral                   ?
_chemical_compound_source                ?
_chemical_name_structure_type            ScNiSi~3~,oS20,38
_chemical_formula_weight                 187.9

# Bibliographic data

_publ_section_title
;
Crystal chemistry of ternary silicides of scandium and transition metals of period IV
;
_journal_coden_ASTM                      INOMAF
_journal_name_full                       'Inorg. Mater.'
_journal_year                            1980
_journal_volume                          16
_journal_page_first                      308
_journal_page_last                       311
_journal_language                        English
loop_
 _publ_author_name
 _publ_author_address
'Kotur B.Y.'
;
Lviv Ivan Franko State University
Department of Inorganic Chemistry
Lviv
Ukraine
;
'Bodak O.I.'
;
Lviv Ivan Franko State University
Department of Inorganic Chemistry
Lviv
Ukraine
;

# Standardized crystallographic data

_cell_length_a                           3.815
_cell_length_b                           3.825
_cell_length_c                           20.62
_cell_angle_alpha                        90
_cell_angle_beta                         90
_cell_angle_gamma                        90
_cell_volume                             300.9
_cell_formula_units_Z                    4
_space_group_IT_number                   38
_space_group_name_H-M_alt                'A m m 2'
loop_
 _space_group_symop_id
 _space_group_symop_operation_xyz
 1 'x, y, z'
 2 '-x, -y, z'
 3 '-x, y, z'
 4 'x, -y, z'
 5 'x, 1/2+y, 1/2+z'
 6 '-x, 1/2-y, 1/2+z'
 7 '-x, 1/2+y, 1/2+z'
 8 'x, 1/2-y, 1/2+z'

# Atomic positions taken from type-defining entry

loop_
 _atom_type_symbol
 Si
 Sc
 Ni
loop_
 _atom_site_label
 _atom_site_type_symbol
 _atom_site_symmetry_multiplicity
 _atom_site_Wyckoff_symbol
 _atom_site_fract_x
 _atom_site_fract_y
 _atom_site_fract_z
 _atom_site_occupancy
 Si1 Si 2 b 0.5 0 0.1611 1
 Si2 Si 2 b 0.5 0 0.2746 1
 Sc1 Sc 2 b 0.5 0 0.5491 1
 Sc2 Sc 2 b 0.5 0 0.887 1
 Si3 Si 2 a 0 0 0.0 1
 Ni1 Ni 2 a 0 0 0.1057 1
 Ni2 Ni 2 a 0 0 0.3307 1
 Si4 Si 2 a 0 0 0.4377 1
 Si5 Si 2 a 0 0 0.6637 1
 Si6 Si 2 a 0 0 0.7771 1


_exptl_crystal_colour                    ?
_exptl_crystal_density_meas              ?
_exptl_crystal_density_diffrn            4.15
_cell_measurement_temperature            ?
_cell_measurement_radiation              ?
_cell_measurement_reflns_used            ?
_diffrn_ambient_temperature              ?
_diffrn_measurement_device               ?
_diffrn_measurement_device_type          ?
_diffrn_radiation_type                   ?
_diffrn_reflns_number                    ?
_exptl_absorpt_coefficient_mu            ?
_exptl_absorpt_correction_type           ?
_computing_structure_solution            ?
_refine_ls_number_parameters             ?
_refine_ls_number_reflns                 ?
_refine_ls_R_factor_gt                   ?
_refine_ls_wR_factor_gt                  ?

# End of data set 1008689

