##############################################################################
#                                                                            #
# Ga-Ni-Sc         # Sc2NiGa8                                      # 1008658 #
#                                                                            #
##############################################################################
#                                                                            #
#                           Pearson's Crystal Data                           #
#      Crystal Structure Database for Inorganic Compounds (on DVD)           #
#                              Release 2023/24                               #
#                  Editors: Pierre Villars and Karin Cenzual                 #
#                                                                            #
#   Copyright (c) ASM International & Material Phases Data System (MPDS),    #
# Switzerland & National Institute for Materials Science (NIMS), Japan, 2023 #
#                   All rights reserved. Version 2023.07                     #
#                                                                            #
#   This copy of Pearson's Crystal Data is licensed to:                      #
#   Hunter College - City University of New York                             #
#                                                                            #
##############################################################################

data_1008658
_audit_creation_date                     2024-02-24
_audit_creation_method
;
Pearson's Crystal Data browser
;
#_database_code_PCD                      1008658
_database_code_PDF                       04-021-9250

# Entry summary

_chemical_formula_structural             'Sc~2~ Ni Ga~8~'
_chemical_formula_sum                    'Ga8 Ni Sc2'
_chemical_name_mineral                   ?
_chemical_compound_source                ?
_chemical_name_structure_type            Ho~2~CoGa~8~,tP11,123
_chemical_formula_weight                 706.4

# Bibliographic data

_publ_section_title
;
Investigation of the Crystal Structure of the ScCoGa~5~, Sc~2~CoGa~8~ Compounds and its Analogues
;
_journal_coden_ASTM                      VKSFAY
_journal_name_full                       'Visn. Kiiv. Univ., Ser. Fiz.'
_journal_year                            1980
_journal_volume                          21
_journal_page_first                      15
_journal_page_last                       17
_journal_language                        Russian
loop_
 _publ_author_name
 _publ_author_address
'Belyavina N.N.'
;
Kyiv Taras Shevchenko State University
Kiev
Ukraine
;
'Markiv V.Y.'
;
Kyiv Taras Shevchenko State University
Kiev
Ukraine
;

# Standardized crystallographic data

_cell_length_a                           4.127
_cell_length_b                           4.127
_cell_length_c                           10.56
_cell_angle_alpha                        90
_cell_angle_beta                         90
_cell_angle_gamma                        90
_cell_volume                             179.9
_cell_formula_units_Z                    1
_space_group_IT_number                   123
_space_group_name_H-M_alt                'P 4/m m m'
loop_
 _space_group_symop_id
 _space_group_symop_operation_xyz
 1 'x, y, z'
 2 '-x, -y, -z'
 3 '-x, -y, z'
 4 '-x, y, -z'
 5 '-x, y, z'
 6 '-y, -x, -z'
 7 '-y, -x, z'
 8 '-y, x, -z'
 9 '-y, x, z'
 10 'x, -y, -z'
 11 'x, -y, z'
 12 'x, y, -z'
 13 'y, -x, -z'
 14 'y, -x, z'
 15 'y, x, -z'
 16 'y, x, z'

# Atomic positions taken from type-defining entry

loop_
 _atom_type_symbol
 Ga
 Sc
 Ni
loop_
 _atom_site_label
 _atom_site_type_symbol
 _atom_site_symmetry_multiplicity
 _atom_site_Wyckoff_symbol
 _atom_site_fract_x
 _atom_site_fract_y
 _atom_site_fract_z
 _atom_site_occupancy
 Ga1 Ga 4 i 0 0.5 0.1189 1
 Ga2 Ga 2 h 0.5 0.5 0.2933 1
 Sc1 Sc 2 g 0 0 0.3093 1
 Ga3 Ga 2 e 0 0.5 0.5 1
 Ni1 Ni 1 a 0 0 0 1


_exptl_crystal_colour                    ?
_exptl_crystal_density_meas              ?
_exptl_crystal_density_diffrn            6.52
_cell_measurement_temperature            ?
_cell_measurement_radiation              ?
_cell_measurement_reflns_used            ?
_diffrn_ambient_temperature              ?
_diffrn_measurement_device               ?
_diffrn_measurement_device_type          ?
_diffrn_radiation_type                   ?
_diffrn_reflns_number                    ?
_exptl_absorpt_coefficient_mu            ?
_exptl_absorpt_correction_type           ?
_computing_structure_solution            ?
_refine_ls_number_parameters             ?
_refine_ls_number_reflns                 ?
_refine_ls_R_factor_gt                   ?
_refine_ls_wR_factor_gt                  ?

# End of data set 1008658

