##############################################################################
#                                                                            #
# Ni-Si-Y          # YNi0.14Si1.67 orth                            # 1010052 #
#                                                                            #
##############################################################################
#                                                                            #
#                           Pearson's Crystal Data                           #
#      Crystal Structure Database for Inorganic Compounds (on DVD)           #
#                              Release 2023/24                               #
#                  Editors: Pierre Villars and Karin Cenzual                 #
#                                                                            #
#   Copyright (c) ASM International & Material Phases Data System (MPDS),    #
# Switzerland & National Institute for Materials Science (NIMS), Japan, 2023 #
#                   All rights reserved. Version 2023.07                     #
#                                                                            #
#   This copy of Pearson's Crystal Data is licensed to:                      #
#   Hunter College - City University of New York                             #
#                                                                            #
##############################################################################

data_1010052
_audit_creation_date                     2024-02-25
_audit_creation_method
;
Pearson's Crystal Data browser
;
#_database_code_PCD                      1010052
_database_code_PDF                       04-021-9441

# Entry summary

_chemical_formula_structural             'Y Ni~0.03~ Si~1.97~'
_chemical_formula_sum                    'Ni0.03 Si1.97 Y'
_chemical_name_mineral                   ?
_chemical_compound_source                ?
_chemical_name_structure_type            GdSi~1.4~,oI12,74
_chemical_formula_weight                 146.0

# Bibliographic data

_publ_section_title
;
An investigation of the ternary Y-Ni-Si system in the region of the compound YSi~2~
;
_journal_coden_ASTM                      INOMAF
_journal_name_full                       'Inorg. Mater.'
_journal_year                            1967
_journal_volume                          3
_journal_page_first                      727
_journal_page_last                       729
_journal_language                        English
loop_
 _publ_author_name
 _publ_author_address
'Skolozdra R.V.'
;
Lviv Ivan Franko State University
Department of Analytical Chemistry
Lviv
Ukraine
;
'Skolozdra R.V.'
;
Lviv Ivan Franko State University
Department of Inorganic Chemistry
Lviv
Ukraine
;
'Gladyshevskii E.I.'
;
Lviv Ivan Franko State University
Department of Inorganic Chemistry
Lviv
Ukraine
;

# Standardized crystallographic data

_cell_length_a                           3.98
_cell_length_b                           4.02
_cell_length_c                           13.4
_cell_angle_alpha                        90
_cell_angle_beta                         90
_cell_angle_gamma                        90
_cell_volume                             214.4
_cell_formula_units_Z                    4
_space_group_IT_number                   74
_space_group_name_H-M_alt                'I m m a'
loop_
 _space_group_symop_id
 _space_group_symop_operation_xyz
 1 'x, y, z'
 2 '-x, 1/2-y, z'
 3 '-x, -y, -z'
 4 '-x, 1/2+y, -z'
 5 '-x, y, z'
 6 'x, 1/2-y, z'
 7 'x, -y, -z'
 8 'x, 1/2+y, -z'
 9 '1/2+x, 1/2+y, 1/2+z'
 10 '1/2-x, 1-y, 1/2+z'
 11 '1/2-x, 1/2-y, 1/2-z'
 12 '1/2-x, 1+y, 1/2-z'
 13 '1/2-x, 1/2+y, 1/2+z'
 14 '1/2+x, 1-y, 1/2+z'
 15 '1/2+x, 1/2-y, 1/2-z'
 16 '1/2+x, 1+y, 1/2-z'

# Atomic positions taken from type-defining entry

loop_
 _atom_type_symbol
 Si
 Ni
 Y
loop_
 _atom_site_label
 _atom_site_type_symbol
 _atom_site_symmetry_multiplicity
 _atom_site_Wyckoff_symbol
 _atom_site_fract_x
 _atom_site_fract_y
 _atom_site_fract_z
 _atom_site_occupancy
 Si1A Si 4 e 0 0.25 0.0362 0.985
 Ni1B Ni 4 e 0 0.25 0.0362 0.015
 Si2A Si 4 e 0 0.25 0.2138 0.985
 Ni2B Ni 4 e 0 0.25 0.2138 0.015
 Y1 Y 4 e 0 0.25 0.625 1


_exptl_crystal_colour                    ?
_exptl_crystal_density_meas              ?
_exptl_crystal_density_diffrn            4.52
_cell_measurement_temperature            ?
_cell_measurement_radiation              X-rays
_cell_measurement_reflns_used            ?
_diffrn_ambient_temperature              ?
_diffrn_measurement_device               'Debye-Scherrer film'
_diffrn_measurement_device_type          ?
_diffrn_radiation_type                   ?
_diffrn_reflns_number                    ?
_exptl_absorpt_coefficient_mu            ?
_exptl_absorpt_correction_type           ?
_computing_structure_solution            ?
_refine_ls_number_parameters             ?
_refine_ls_number_reflns                 ?
_refine_ls_R_factor_gt                   ?
_refine_ls_wR_factor_gt                  ?

# End of data set 1010052

