##############################################################################
#                                                                            #
# Dy-Fe-Sn         # DyFe0.3Sn2                                    # 1011172 #
#                                                                            #
##############################################################################
#                                                                            #
#                           Pearson's Crystal Data                           #
#      Crystal Structure Database for Inorganic Compounds (on DVD)           #
#                              Release 2023/24                               #
#                  Editors: Pierre Villars and Karin Cenzual                 #
#                                                                            #
#   Copyright (c) ASM International & Material Phases Data System (MPDS),    #
# Switzerland & National Institute for Materials Science (NIMS), Japan, 2023 #
#                   All rights reserved. Version 2023.07                     #
#                                                                            #
#   This copy of Pearson's Crystal Data is licensed to:                      #
#   Hunter College - City University of New York                             #
#                                                                            #
##############################################################################

data_1011172
_audit_creation_date                     2024-02-24
_audit_creation_method
;
Pearson's Crystal Data browser
;
#_database_code_PCD                      1011172
_database_code_PDF                       04-011-7204

# Entry summary

_chemical_formula_structural             'Dy Fe~0.1~ Sn~2~'
_chemical_formula_sum                    'Dy Fe0.10 Sn2'
_chemical_name_mineral                   ?
_chemical_compound_source                ?
_chemical_name_structure_type            CeNiSi~2~,oS16,63
_chemical_formula_weight                 405.5

# Bibliographic data

_publ_section_title
;
Structural and magnetic characterization of DyFe~x~Sn~2~ (0 <= x <= 0.3) intermetallics
;
_journal_coden_ASTM                      IERME5
_journal_name_full                       Intermetallics
_journal_year                            2005
_journal_volume                          13
_journal_page_first                      61
_journal_page_last                       67
_journal_language                        English
loop_
 _publ_author_name
 _publ_author_address
'Pereira L.C.J.'
;
Technological and Nuclear Institute (ITN)
Departamento de Quimica
Lisbon
Portugal
;
'Rojas D.P.'
;
Technological and Nuclear Institute (ITN)
Departamento de Quimica
Lisbon
Portugal
;
'Waerenborgh J.C.'
;
Technological and Nuclear Institute (ITN)
Departamento de Quimica
Lisbon
Portugal
;

# Standardized crystallographic data

_cell_length_a                           4.4029
_cell_length_b                           16.2552
_cell_length_c                           4.3253
_cell_angle_alpha                        90
_cell_angle_beta                         90
_cell_angle_gamma                        90
_cell_volume                             309.6
_cell_formula_units_Z                    4
_space_group_IT_number                   63
_space_group_name_H-M_alt                'C m c m'
loop_
 _space_group_symop_id
 _space_group_symop_operation_xyz
 1 'x, y, z'
 2 '-x, -y, -z'
 3 '-x, -y, 1/2+z'
 4 '-x, y, 1/2-z'
 5 '-x, y, z'
 6 'x, -y, -z'
 7 'x, -y, 1/2+z'
 8 'x, y, 1/2-z'
 9 '1/2+x, 1/2+y, z'
 10 '1/2-x, 1/2-y, -z'
 11 '1/2-x, 1/2-y, 1/2+z'
 12 '1/2-x, 1/2+y, 1/2-z'
 13 '1/2-x, 1/2+y, z'
 14 '1/2+x, 1/2-y, -z'
 15 '1/2+x, 1/2-y, 1/2+z'
 16 '1/2+x, 1/2+y, 1/2-z'
loop_
 _atom_type_symbol
 Sn
 Fe
 Dy
loop_
 _atom_site_label
 _atom_site_type_symbol
 _atom_site_symmetry_multiplicity
 _atom_site_Wyckoff_symbol
 _atom_site_fract_x
 _atom_site_fract_y
 _atom_site_fract_z
 _atom_site_occupancy
 Sn1 Sn 4 c 0 0.0645 0.25 1
 Fe Fe 4 c 0 0.227 0.25 0.1
 Dy Dy 4 c 0 0.402 0.25 1
 Sn2 Sn 4 c 0 0.7502 0.25 1


_exptl_crystal_colour                    ?
_exptl_crystal_density_meas              ?
_exptl_crystal_density_diffrn            8.70
_cell_measurement_temperature            ?
_cell_measurement_radiation              'X-rays, Cu Ka'
_cell_measurement_reflns_used            ?
_diffrn_ambient_temperature              ?
_diffrn_measurement_device               'automatic diffractometer'
_diffrn_measurement_device_type          Rigaku
_diffrn_radiation_type                   'X-rays, Cu Ka'
_diffrn_reflns_number                    ?
_diffrn_reflns_theta_min                 5
_diffrn_reflns_theta_max                 50
_pd_proc_2theta_range_min                10
_pd_proc_2theta_range_max                100
_exptl_absorpt_coefficient_mu            ?
_exptl_absorpt_correction_type           ?
_computing_structure_solution            'starting values from the literature'
_refine_ls_number_parameters             ?
_refine_ls_number_reflns                 ?
_refine_ls_R_factor_gt                   ?
_refine_ls_wR_factor_gt                  ?
_pd_proc_ls_proof_R_factor               ?
_pd_proc_ls_proof_wR_factor              ?
_refine_ls_R_I_factor                    0.1368

# End of data set 1011172

