##############################################################################
#                                                                            #
# Eu-In-Pd         # EuPdIn2                                       # 1520431 #
#                                                                            #
##############################################################################
#                                                                            #
#                           Pearson's Crystal Data                           #
#      Crystal Structure Database for Inorganic Compounds (on DVD)           #
#                              Release 2023/24                               #
#                  Editors: Pierre Villars and Karin Cenzual                 #
#                                                                            #
#   Copyright (c) ASM International & Material Phases Data System (MPDS),    #
# Switzerland & National Institute for Materials Science (NIMS), Japan, 2023 #
#                   All rights reserved. Version 2023.07                     #
#                                                                            #
#   This copy of Pearson's Crystal Data is licensed to:                      #
#   Hunter College - City University of New York                             #
#                                                                            #
##############################################################################

data_1520431
_audit_creation_date                     2024-02-24
_audit_creation_method
;
Pearson's Crystal Data browser
;
#_database_code_PCD                      1520431
_database_code_PDF                       04-011-5879

# Entry summary

_chemical_formula_structural             'Eu Pd In~2~'
_chemical_formula_sum                    'Eu In2 Pd'
_chemical_name_mineral                   ?
_chemical_compound_source                ?
_chemical_name_structure_type            MgCuAl~2~,oS16,63
_chemical_formula_weight                 488.0

# Bibliographic data

_publ_section_title
;
EuPdIn~2~; YbPdIn~2~, and YbAuIn~2~: Syntheses, Structures, and Properties of New Intermetallic Compounds with Ordered Re~3~B-Type Structure
;
_journal_coden_ASTM                      EJICFO
_journal_name_full                       'Eur. J. Inorg. Chem.'
_journal_year                            1999
_journal_volume                          ?
_journal_page_first                      975
_journal_page_last                       979
_journal_language                        English
loop_
 _publ_author_name
 _publ_author_address
'Galadzhun Y.V.'
;
Munster University (WWU)
Institut fur Anorganische Chemie
Munster
Germany
;
'Hoffmann R.D.'
;
Munster University (WWU)
Institut fur Anorganische Chemie
Munster
Germany
;
'Kotzyba G.'
;
Munster University (WWU)
Institut fur Anorganische Chemie
Munster
Germany
;
'Kunnen B.'
;
Munster University (WWU)
Institut fur Anorganische Chemie
Munster
Germany
;
'Pottgen R.'
;
Munster University (WWU)
Institut fur Anorganische Chemie
Munster
Germany
;

# Standardized crystallographic data

_cell_length_a                           4.536
_cell_length_b                           10.543
_cell_length_c                           7.853
_cell_angle_alpha                        90
_cell_angle_beta                         90
_cell_angle_gamma                        90
_cell_volume                             375.6
_cell_formula_units_Z                    4
_space_group_IT_number                   63
_space_group_name_H-M_alt                'C m c m'
loop_
 _space_group_symop_id
 _space_group_symop_operation_xyz
 1 'x, y, z'
 2 '-x, -y, -z'
 3 '-x, -y, 1/2+z'
 4 '-x, y, 1/2-z'
 5 '-x, y, z'
 6 'x, -y, -z'
 7 'x, -y, 1/2+z'
 8 'x, y, 1/2-z'
 9 '1/2+x, 1/2+y, z'
 10 '1/2-x, 1/2-y, -z'
 11 '1/2-x, 1/2-y, 1/2+z'
 12 '1/2-x, 1/2+y, 1/2-z'
 13 '1/2-x, 1/2+y, z'
 14 '1/2+x, 1/2-y, -z'
 15 '1/2+x, 1/2-y, 1/2+z'
 16 '1/2+x, 1/2+y, 1/2-z'
loop_
 _atom_type_symbol
 In
 Eu
 Pd
loop_
 _atom_site_label
 _atom_site_type_symbol
 _atom_site_symmetry_multiplicity
 _atom_site_Wyckoff_symbol
 _atom_site_fract_x
 _atom_site_fract_y
 _atom_site_fract_z
 _atom_site_occupancy
 In In 8 f 0 0.14823 0.05411 1
 Eu Eu 4 c 0 0.43637 0.25 1
 Pd Pd 4 c 0 0.71798 0.25 1


_exptl_crystal_colour                    gray
_exptl_crystal_density_meas              ?
_exptl_crystal_density_diffrn            8.63
_cell_measurement_temperature            ?
_cell_measurement_radiation              'X-rays, Cu Ka1'
_cell_measurement_reflns_used            ?
_diffrn_ambient_temperature              ?
_diffrn_measurement_device               'automatic diffractometer'
_diffrn_measurement_device_type          'Enraf-Nonius CAD4'
_diffrn_radiation_type                   'X-rays, Mo Ka'
_diffrn_radiation_wavelength             0.71073
_diffrn_reflns_number                    2502
_diffrn_reflns_theta_min                 2
_diffrn_reflns_theta_max                 40
_exptl_absorpt_coefficient_mu            33.0
_exptl_absorpt_correction_type           yes
_computing_structure_solution            'direct methods, Fourier synthesis'
_refine_ls_number_parameters             16
_refine_ls_number_reflns                 602
_refine_ls_R_factor_gt                   0.0197
_refine_ls_wR_factor_gt                  ?

# End of data set 1520431

