##############################################################################
#                                                                            #
# Gd-In-Rh         # Gd3Rh2In4                                     # 1521093 #
#                                                                            #
##############################################################################
#                                                                            #
#                           Pearson's Crystal Data                           #
#      Crystal Structure Database for Inorganic Compounds (on DVD)           #
#                              Release 2023/24                               #
#                  Editors: Pierre Villars and Karin Cenzual                 #
#                                                                            #
#   Copyright (c) ASM International & Material Phases Data System (MPDS),    #
# Switzerland & National Institute for Materials Science (NIMS), Japan, 2023 #
#                   All rights reserved. Version 2023.07                     #
#                                                                            #
#   This copy of Pearson's Crystal Data is licensed to:                      #
#   Hunter College - City University of New York                             #
#                                                                            #
##############################################################################

data_1521093
_audit_creation_date                     2024-02-24
_audit_creation_method
;
Pearson's Crystal Data browser
;
#_database_code_PCD                      1521093
_database_code_PDF                       04-012-0643

# Entry summary

_chemical_formula_structural             'Gd~3~ Rh~1.940~ In~4~'
_chemical_formula_sum                    'Gd3 In4 Rh1.94'
_chemical_name_mineral                   ?
_chemical_compound_source                ?
_chemical_name_structure_type            Lu~3~Co~2~In~4~,hP9,174
_chemical_formula_weight                 1130.7

# Bibliographic data

_publ_section_title
'Syntheses and Structure of Gd~3~Rh~1.940(7)~In~4~'                           
_journal_coden_ASTM                      MOCMB7
_journal_name_full                       'Monatsh. Chem.'
_journal_year                            2005
_journal_volume                          136
_journal_page_first                      1985
_journal_page_last                       1991
_journal_language                        English
loop_
 _publ_author_name
 _publ_author_address
'Rodewald U.C.'
;
Munster University (WWU)
Institut fur Anorganische und Analytische Chemie
Munster
Germany
;
'Lukachuk M.O.'
;
Munster University (WWU)
Institut fur Anorganische und Analytische Chemie
Munster
Germany
;
'Hoffmann R.D.'
;
Munster University (WWU)
Institut fur Anorganische und Analytische Chemie
Munster
Germany
;
'Pottgen R.'
;
Munster University (WWU)
Institut fur Anorganische und Analytische Chemie
Munster
Germany
;

# Standardized crystallographic data

_cell_length_a                           7.814
_cell_length_b                           7.814
_cell_length_c                           3.838
_cell_angle_alpha                        90
_cell_angle_beta                         90
_cell_angle_gamma                        120
_cell_volume                             202.9
_cell_formula_units_Z                    1
_space_group_IT_number                   174
_space_group_name_H-M_alt                'P -6'
loop_
 _space_group_symop_id
 _space_group_symop_operation_xyz
 1 'x, y, z'
 2 '-x+y, -x, -z'
 3 '-x+y, -x, z'
 4 '-y, x-y, -z'
 5 '-y, x-y, z'
 6 'x, y, -z'
loop_
 _atom_type_symbol
 Gd
 In
 Rh
loop_
 _atom_site_label
 _atom_site_type_symbol
 _atom_site_symmetry_multiplicity
 _atom_site_Wyckoff_symbol
 _atom_site_fract_x
 _atom_site_fract_y
 _atom_site_fract_z
 _atom_site_occupancy
 Gd Gd 3 k 0.30316 0.25073 0.5 1
 In2 In 3 j 0.08062 0.41246 0 1
 In1 In 1 e 0.666667 0.333333 0 1
 Rh1 Rh 1 d 0.333333 0.666667 0.5 0.94
 Rh2 Rh 1 a 0 0 0 1


_exptl_crystal_colour                    gray
_exptl_crystal_density_meas              ?
_exptl_crystal_density_diffrn            9.25
_cell_measurement_temperature            ?
_cell_measurement_radiation              X-rays
_cell_measurement_reflns_used            ?
_diffrn_ambient_temperature              ?
_diffrn_measurement_device               'automatic diffractometer'
_diffrn_measurement_device_type          'STOE IPDS II'
_diffrn_radiation_type                   X-rays
_diffrn_reflns_number                    3068
_diffrn_reflns_theta_min                 3
_diffrn_reflns_theta_max                 35
_exptl_absorpt_coefficient_mu            39.2
_exptl_absorpt_correction_type           analytical
_computing_structure_solution            'starting values from the literature'
_refine_ls_number_parameters             22
_refine_ls_number_reflns                 648
_refine_ls_R_factor_gt                   0.0150
_refine_ls_wR_factor_gt                  0.0284

# End of data set 1521093

