##############################################################################
#                                                                            #
# Co-Er-Ge         # ErCo0.5Ge2                                    # 1522031 #
#                                                                            #
##############################################################################
#                                                                            #
#                           Pearson's Crystal Data                           #
#      Crystal Structure Database for Inorganic Compounds (on DVD)           #
#                              Release 2023/24                               #
#                  Editors: Pierre Villars and Karin Cenzual                 #
#                                                                            #
#   Copyright (c) ASM International & Material Phases Data System (MPDS),    #
# Switzerland & National Institute for Materials Science (NIMS), Japan, 2023 #
#                   All rights reserved. Version 2023.07                     #
#                                                                            #
#   This copy of Pearson's Crystal Data is licensed to:                      #
#   Hunter College - City University of New York                             #
#                                                                            #
##############################################################################

data_1522031
_audit_creation_date                     2024-02-24
_audit_creation_method
;
Pearson's Crystal Data browser
;
#_database_code_PCD                      1522031
_database_code_PDF                       04-013-5002

# Entry summary

_chemical_formula_structural             'Er Co~0.4~ Ge~2~'
_chemical_formula_sum                    'Co0.40 Er Ge2'
_chemical_name_mineral                   ?
_chemical_compound_source                ?
_chemical_name_structure_type            CeNiSi~2~,oS16,63
_chemical_formula_weight                 336.0

# Bibliographic data

_publ_section_title
'Magnetic properties of the RCo~x~Ge~2~ (R= Gd-Er) compounds'                 
_journal_coden_ASTM                      JALCEU
_journal_name_full                       'J. Alloys Compd.'
_journal_year                            2006
_journal_volume                          415
_journal_page_first                      1
_journal_page_last                       7
_journal_language                        English
loop_
 _publ_author_name
 _publ_author_address
'Baran S.'
;
Jagiellonian University
M. Smoluchowski Institute of Physics
Cracow
Poland
;
'Henkel F.'
;
Hahn-Meitner Institute
Berlin Neutron Scattering Center (BENSC)
Berlin
Germany
;
'Kaczorowski D.'
;
Polish Academy of Sciences (PAN)
Trzebiatowski W. Institute of Low Temperature and Structure Research
Wroclaw
Poland
;
'Hernandez Velasco J.'
;
Hahn-Meitner Institute
Berlin Neutron Scattering Center (BENSC)
Berlin
Germany
;
'Penc B.'
;
Jagiellonian University
M. Smoluchowski Institute of Physics
Cracow
Poland
;
'Stusser N.'
;
Hahn-Meitner Institute
Berlin Neutron Scattering Center (BENSC)
Berlin
Germany
;
'Szytula A.'
;
Jagiellonian University
M. Smoluchowski Institute of Physics
Cracow
Poland
;
'Wawrzynska E.'
;
Jagiellonian University
M. Smoluchowski Institute of Physics
Cracow
Poland
;

# Standardized crystallographic data

_cell_length_a                           4.067
_cell_length_b                           15.739
_cell_length_c                           3.962
_cell_angle_alpha                        90
_cell_angle_beta                         90
_cell_angle_gamma                        90
_cell_volume                             253.6
_cell_formula_units_Z                    4
_space_group_IT_number                   63
_space_group_name_H-M_alt                'C m c m'
loop_
 _space_group_symop_id
 _space_group_symop_operation_xyz
 1 'x, y, z'
 2 '-x, -y, -z'
 3 '-x, -y, 1/2+z'
 4 '-x, y, 1/2-z'
 5 '-x, y, z'
 6 'x, -y, -z'
 7 'x, -y, 1/2+z'
 8 'x, y, 1/2-z'
 9 '1/2+x, 1/2+y, z'
 10 '1/2-x, 1/2-y, -z'
 11 '1/2-x, 1/2-y, 1/2+z'
 12 '1/2-x, 1/2+y, 1/2-z'
 13 '1/2-x, 1/2+y, z'
 14 '1/2+x, 1/2-y, -z'
 15 '1/2+x, 1/2-y, 1/2+z'
 16 '1/2+x, 1/2+y, 1/2-z'
loop_
 _atom_type_symbol
 Ge
 Co
 Er
loop_
 _atom_site_label
 _atom_site_type_symbol
 _atom_site_symmetry_multiplicity
 _atom_site_Wyckoff_symbol
 _atom_site_fract_x
 _atom_site_fract_y
 _atom_site_fract_z
 _atom_site_occupancy
 Ge1 Ge 4 c 0 0.0467 0.25 1
 Co Co 4 c 0 0.193 0.25 0.4
 Er Er 4 c 0 0.397 0.25 1
 Ge2 Ge 4 c 0 0.7521 0.25 1


_exptl_crystal_colour                    ?
_exptl_crystal_density_meas              ?
_exptl_crystal_density_diffrn            8.80
_cell_measurement_temperature            10
_cell_measurement_radiation              neutrons
_cell_measurement_wavelength             2.446
_pd_proc_wavelength                      2.446
_cell_measurement_reflns_used            ?
_diffrn_ambient_temperature              10
_diffrn_measurement_device               'automatic diffractometer'
_diffrn_measurement_device_type
;
Germany, Berlin, Hahn-Meitner Institute, Berlin Neutron Scattering Center, BER II reactor, E6
;
_diffrn_radiation_type                   neutrons
_diffrn_radiation_wavelength             2.446
_diffrn_reflns_number                    ?
_exptl_absorpt_coefficient_mu            ?
_exptl_absorpt_correction_type           ?
_computing_structure_solution            'starting values from the literature'
_refine_ls_number_parameters             ?
_refine_ls_number_reflns                 ?
_refine_ls_R_factor_gt                   ?
_refine_ls_wR_factor_gt                  ?
_pd_proc_ls_proof_R_factor               ?
_pd_proc_ls_proof_wR_factor              ?
_refine_ls_R_I_factor                    0.103

# End of data set 1522031

