##############################################################################
#                                                                            #
# Dy-Fe-Ge         # DyFe4Ge2 rt                                   # 1522908 #
#                                                                            #
##############################################################################
#                                                                            #
#                           Pearson's Crystal Data                           #
#      Crystal Structure Database for Inorganic Compounds (on DVD)           #
#                              Release 2023/24                               #
#                  Editors: Pierre Villars and Karin Cenzual                 #
#                                                                            #
#   Copyright (c) ASM International & Material Phases Data System (MPDS),    #
# Switzerland & National Institute for Materials Science (NIMS), Japan, 2023 #
#                   All rights reserved. Version 2023.07                     #
#                                                                            #
#   This copy of Pearson's Crystal Data is licensed to:                      #
#   Hunter College - City University of New York                             #
#                                                                            #
##############################################################################

data_1522908
_audit_creation_date                     2024-02-24
_audit_creation_method
;
Pearson's Crystal Data browser
;
#_database_code_PCD                      1522908
_database_code_PDF                       04-013-5663

# Entry summary

_chemical_formula_structural             'Dy Fe~4~ Ge~2~'
_chemical_formula_sum                    'Dy Fe4 Ge2'
_chemical_name_mineral                   ?
_chemical_compound_source                ?
_chemical_name_structure_type            ZrFe~4~Si~2~,tP14,136
_chemical_formula_weight                 531.1

# Bibliographic data

_publ_section_title
'Magnetostructural phase transitions of DyFe~4~Ge~2~: part I - by XRPD'       
_journal_coden_ASTM                      JMMMDC
_journal_name_full                       'J. Magn. Magn. Mater.'
_journal_year                            2006
_journal_volume                          300
_journal_page_first                      315
_journal_page_last                       332
_journal_language                        English
loop_
 _publ_author_name
 _publ_author_address
'Schobinger Papamantellos P.'
;
Swiss Federal Institute of Technology (ETHZ)
Laboratorium fur Kristallographie
Zurich
Switzerland
;
'Rodriguez Carvajal J.'
;
Centre d'Etudes Nucleaire de Saclay
Laboratoire Leon Brillouin (LLB)
Gif-sur-Yvette
France
;
'Buschow K.H.J.'
;
Amsterdam University
Van der Waals-Zeeman Laboratorium
Amsterdam
Netherlands
;
'Dooryhee E.'
;
European Synchrotron Radiation Facility (ESRF)
Grenoble
France
;
'Fitch A.N.'
;
European Synchrotron Radiation Facility (ESRF)
Grenoble
France
;

# Standardized crystallographic data

_cell_length_a                           7.2889
_cell_length_b                           7.2889
_cell_length_c                           3.8535
_cell_angle_alpha                        90
_cell_angle_beta                         90
_cell_angle_gamma                        90
_cell_volume                             204.7
_cell_formula_units_Z                    2
_space_group_IT_number                   136
_space_group_name_H-M_alt                'P 42/m n m'
loop_
 _space_group_symop_id
 _space_group_symop_operation_xyz
 1 'x, y, z'
 2 '1/2-x, 1/2+y, 1/2-z'
 3 '1/2-x, 1/2+y, 1/2+z'
 4 '-x, -y, -z'
 5 '-x, -y, z'
 6 '1/2-y, 1/2+x, 1/2-z'
 7 '1/2-y, 1/2+x, 1/2+z'
 8 '-y, -x, -z'
 9 '-y, -x, z'
 10 '1/2+x, 1/2-y, 1/2-z'
 11 '1/2+x, 1/2-y, 1/2+z'
 12 'x, y, -z'
 13 '1/2+y, 1/2-x, 1/2-z'
 14 '1/2+y, 1/2-x, 1/2+z'
 15 'y, x, -z'
 16 'y, x, z'
loop_
 _atom_type_symbol
 Fe
 Ge
 Dy
loop_
 _atom_site_label
 _atom_site_type_symbol
 _atom_site_symmetry_multiplicity
 _atom_site_Wyckoff_symbol
 _atom_site_fract_x
 _atom_site_fract_y
 _atom_site_fract_z
 _atom_site_occupancy
 Fe Fe 8 i 0.1447 0.5876 0 1
 Ge Ge 4 f 0.2838 0.2838 0 1
 Dy Dy 2 a 0 0 0 1


_exptl_crystal_colour                    ?
_exptl_crystal_density_meas              ?
_exptl_crystal_density_diffrn            8.62
_cell_measurement_temperature            65
_cell_measurement_radiation              'X-rays, synchrotron'
_cell_measurement_wavelength             0.40578
_pd_proc_wavelength                      0.40578
_cell_measurement_reflns_used            ?
_diffrn_ambient_temperature              65
_diffrn_measurement_device               'automatic diffractometer'
_diffrn_measurement_device_type
'France, Grenoble, European Synchrotron Radiation Facility ESRF, BM16'        
_diffrn_radiation_type                   'X-rays, synchrotron'
_diffrn_radiation_wavelength             0.40578
_diffrn_reflns_number                    ?
_exptl_absorpt_coefficient_mu            ?
_exptl_absorpt_correction_type           ?
_computing_structure_solution            'starting values from the literature'
_refine_ls_number_parameters             ?
_refine_ls_number_reflns                 ?
_refine_ls_R_factor_gt                   ?
_refine_ls_wR_factor_gt                  ?
_pd_proc_ls_proof_R_factor               ?
_pd_proc_ls_proof_wR_factor              0.13
_refine_ls_R_I_factor                    0.023

# End of data set 1522908

