##############################################################################
#                                                                            #
# Ce-Ga-Rh         # CeRh2Ga2                                      # 1533937 #
#                                                                            #
##############################################################################
#                                                                            #
#                           Pearson's Crystal Data                           #
#      Crystal Structure Database for Inorganic Compounds (on DVD)           #
#                              Release 2023/24                               #
#                  Editors: Pierre Villars and Karin Cenzual                 #
#                                                                            #
#   Copyright (c) ASM International & Material Phases Data System (MPDS),    #
# Switzerland & National Institute for Materials Science (NIMS), Japan, 2023 #
#                   All rights reserved. Version 2023.07                     #
#                                                                            #
#   This copy of Pearson's Crystal Data is licensed to:                      #
#   Hunter College - City University of New York                             #
#                                                                            #
##############################################################################

data_1533937
_audit_creation_date                     2024-02-24
_audit_creation_method
;
Pearson's Crystal Data browser
;
#_database_code_PCD                      1533937
_database_code_PDF                       04-025-5004

# Entry summary

_chemical_formula_structural             'Ce Rh~2~ Ga~2~'
_chemical_formula_sum                    'Ce Ga2 Rh2'
_chemical_name_mineral                   ?
_chemical_compound_source                ?
_chemical_name_structure_type            CaBe~2~Ge~2~,tP10,129
_chemical_formula_weight                 485.4

# Bibliographic data

_publ_section_title
'Kondo lattice heavy fermion behavior in CeRh~2~Ga~2~'                        
_journal_coden_ASTM                      JCOMEL
_journal_name_full                       'J. Phys.: Condens. Matter'
_journal_year                            2017
_journal_volume                          29
_journal_page_first                      1
_journal_page_last                       6
_journal_language                        English
loop_
 _publ_author_name
 _publ_author_address
'Anand V.K.'
;
Helmholtz Association of German Research Centers
Helmholtz-Zentrum Berlin fur Materialien und Energie (HZB)
Berlin
Germany
;
'Adroja D.T.'
;
Science and Technology Facilities Council (STFC)
ISIS Facility
Chilton-Didcot
United Kingdom
;
'Bhattacharyya A.'
;
Science and Technology Facilities Council (STFC)
ISIS Facility
Chilton-Didcot
United Kingdom
;
'Klemke B.'
;
Helmholtz Association of German Research Centers
Helmholtz-Zentrum Berlin fur Materialien und Energie (HZB)
Berlin
Germany
;
'Lake B.'
;
Helmholtz Association of German Research Centers
Helmholtz-Zentrum Berlin fur Materialien und Energie (HZB)
Berlin
Germany
;

# Standardized crystallographic data

_cell_length_a                           4.3321
_cell_length_b                           4.3321
_cell_length_c                           9.7202
_cell_angle_alpha                        90
_cell_angle_beta                         90
_cell_angle_gamma                        90
_cell_volume                             182.4
_cell_formula_units_Z                    2
_space_group_IT_number                   129
_space_group_name_H-M_alt                'P 4/n m m (origin choice 2)'
loop_
 _space_group_symop_id
 _space_group_symop_operation_xyz
 1 'x, y, z'
 2 '1/2-x, 1/2-y, z'
 3 '1/2-x, y, z'
 4 '-x, -y, -z'
 5 '-x, 1/2+y, -z'
 6 '1/2-y, 1/2-x, z'
 7 '1/2-y, x, z'
 8 '-y, -x, -z'
 9 '-y, 1/2+x, -z'
 10 '1/2+x, -y, -z'
 11 '1/2+x, 1/2+y, -z'
 12 'x, 1/2-y, z'
 13 '1/2+y, -x, -z'
 14 '1/2+y, 1/2+x, -z'
 15 'y, 1/2-x, z'
 16 'y, x, z'
loop_
 _atom_type_symbol
 Rh
 Ga
 Ce
loop_
 _atom_site_label
 _atom_site_type_symbol
 _atom_site_symmetry_multiplicity
 _atom_site_Wyckoff_symbol
 _atom_site_fract_x
 _atom_site_fract_y
 _atom_site_fract_z
 _atom_site_occupancy
 Rh2 Rh 2 c 0.25 0.25 0.1128 1
 Ga2 Ga 2 c 0.25 0.25 0.3527 1
 Ce Ce 2 c 0.25 0.25 0.7435 1
 Rh1 Rh 2 b 0.75 0.25 0.5 1
 Ga1 Ga 2 a 0.75 0.25 0 1


_exptl_crystal_colour                    ?
_exptl_crystal_density_meas              ?
_exptl_crystal_density_diffrn            8.84
_cell_measurement_temperature            ?
_cell_measurement_radiation              ?
_cell_measurement_reflns_used            ?
_diffrn_ambient_temperature              ?
_diffrn_measurement_device               ?
_diffrn_measurement_device_type          ?
_diffrn_radiation_type                   'X-rays, Cu Ka'
_diffrn_reflns_number                    ?
_exptl_absorpt_coefficient_mu            ?
_exptl_absorpt_correction_type           ?
_computing_structure_solution            'starting values from the literature'
_refine_ls_number_parameters             ?
_refine_ls_number_reflns                 ?
_refine_ls_R_factor_gt                   ?
_refine_ls_wR_factor_gt                  ?
_pd_proc_ls_proof_R_factor               ?
_pd_proc_ls_proof_wR_factor              ?
_refine_ls_R_I_factor                    ?

# End of data set 1533937

