##############################################################################
#                                                                            #
# Ce-In-Rh         # CeRhIn5                                       # 1533967 #
#                                                                            #
##############################################################################
#                                                                            #
#                           Pearson's Crystal Data                           #
#      Crystal Structure Database for Inorganic Compounds (on DVD)           #
#                              Release 2023/24                               #
#                  Editors: Pierre Villars and Karin Cenzual                 #
#                                                                            #
#   Copyright (c) ASM International & Material Phases Data System (MPDS),    #
# Switzerland & National Institute for Materials Science (NIMS), Japan, 2023 #
#                   All rights reserved. Version 2023.07                     #
#                                                                            #
#   This copy of Pearson's Crystal Data is licensed to:                      #
#   Hunter College - City University of New York                             #
#                                                                            #
##############################################################################

data_1533967
_audit_creation_date                     2024-02-24
_audit_creation_method
;
Pearson's Crystal Data browser
;
#_database_code_PCD                      1533967
_database_code_PDF                       04-027-6607

# Entry summary

_chemical_formula_structural             'Ce Rh In~5~'
_chemical_formula_sum                    'Ce In5 Rh'
_chemical_name_mineral                   ?
_chemical_compound_source                ?
_chemical_name_structure_type            HoCoGa~5~,tP7,123
_chemical_formula_weight                 817.1

# Bibliographic data

_publ_section_title
;
Low temperature magnetic structure of CeRhIn~5~ by neutron diffraction on absorption-optimized samples
;
_journal_coden_ASTM                      JCOMEL
_journal_name_full                       'J. Phys.: Condens. Matter'
_journal_year                            2017
_journal_volume                          29
_journal_page_first                      1
_journal_page_last                       7
_journal_language                        English
loop_
 _publ_author_name
 _publ_author_address
'Fobes D.M.'
;
Los Alamos National Laboratory (LANL)
Condensed Matter and Magnet Science (MPA-CMMS)
Los Alamos
U.S.A. New Mexico
;
'Bauer E.D.'
;
Los Alamos National Laboratory (LANL)
Condensed Matter and Magnet Science (MPA-CMMS)
Los Alamos
U.S.A. New Mexico
;
'Thompson J.D.'
;
Los Alamos National Laboratory (LANL)
Condensed Matter and Magnet Science (MPA-CMMS)
Los Alamos
U.S.A. New Mexico
;
'Sazonov A.'
;
Aachen RWTH University
Institut fur Kristallographie
Aachen
Germany
;
'Hutanu V.'
;
Aachen RWTH University
Institut fur Kristallographie
Aachen
Germany
;
'Zhang S.'
;
University of Tennessee (UT)
Department of Physics and Astronomy
Knoxville
U.S.A. Tennessee
;
'Ronning F.'
;
Los Alamos National Laboratory (LANL)
Condensed Matter and Magnet Science (MPA-CMMS)
Los Alamos
U.S.A. New Mexico
;
'Janoschek M.'
;
Los Alamos National Laboratory (LANL)
Condensed Matter and Magnet Science (MPA-CMMS)
Los Alamos
U.S.A. New Mexico
;

# Standardized crystallographic data

_cell_length_a                           4.606
_cell_length_b                           4.606
_cell_length_c                           7.467
_cell_angle_alpha                        90
_cell_angle_beta                         90
_cell_angle_gamma                        90
_cell_volume                             158.4
_cell_formula_units_Z                    1
_space_group_IT_number                   123
_space_group_name_H-M_alt                'P 4/m m m'
loop_
 _space_group_symop_id
 _space_group_symop_operation_xyz
 1 'x, y, z'
 2 '-x, -y, -z'
 3 '-x, -y, z'
 4 '-x, y, -z'
 5 '-x, y, z'
 6 '-y, -x, -z'
 7 '-y, -x, z'
 8 '-y, x, -z'
 9 '-y, x, z'
 10 'x, -y, -z'
 11 'x, -y, z'
 12 'x, y, -z'
 13 'y, -x, -z'
 14 'y, -x, z'
 15 'y, x, -z'
 16 'y, x, z'
loop_
 _atom_type_symbol
 In
 Rh
 Ce
loop_
 _atom_site_label
 _atom_site_type_symbol
 _atom_site_symmetry_multiplicity
 _atom_site_Wyckoff_symbol
 _atom_site_fract_x
 _atom_site_fract_y
 _atom_site_fract_z
 _atom_site_occupancy
 In1 In 4 i 0 0.5 0.3055 1
 In2 In 1 c 0.5 0.5 0 1
 Rh Rh 1 b 0 0 0.5 1
 Ce Ce 1 a 0 0 0 1


_exptl_crystal_colour                    ?
_exptl_crystal_density_meas              ?
_exptl_crystal_density_diffrn            8.57
_cell_measurement_temperature            ?
_cell_measurement_radiation              ?
_cell_measurement_reflns_used            ?
_diffrn_ambient_temperature              1.5
_diffrn_measurement_device               'automatic diffractometer'
_diffrn_measurement_device_type
;
Germany, Garching, Forschungs-Neutronenquelle Heinz Maier-Leibnitz, FRM II reactor, POLI
;
_diffrn_radiation_type                   neutrons
_diffrn_radiation_wavelength             0.7
_diffrn_reflns_number                    149
_exptl_absorpt_coefficient_mu            0.104
_exptl_absorpt_correction_type           yes
_computing_structure_solution            'starting values from the literature'
_refine_ls_number_parameters             ?
_refine_ls_number_reflns                 80
_refine_ls_R_factor_gt                   ?
_refine_ls_wR_factor_gt                  ?

# End of data set 1533967

