##############################################################################
#                                                                            #
# Dy-In-Ni         # Dy5Ni2In4                                     # 1535508 #
#                                                                            #
##############################################################################
#                                                                            #
#                           Pearson's Crystal Data                           #
#      Crystal Structure Database for Inorganic Compounds (on DVD)           #
#                              Release 2023/24                               #
#                  Editors: Pierre Villars and Karin Cenzual                 #
#                                                                            #
#   Copyright (c) ASM International & Material Phases Data System (MPDS),    #
# Switzerland & National Institute for Materials Science (NIMS), Japan, 2023 #
#                   All rights reserved. Version 2023.07                     #
#                                                                            #
#   This copy of Pearson's Crystal Data is licensed to:                      #
#   Hunter College - City University of New York                             #
#                                                                            #
##############################################################################

data_1535508
_audit_creation_date                     2024-02-24
_audit_creation_method
;
Pearson's Crystal Data browser
;
#_database_code_PCD                      1535508
_database_code_PDF                       ?

# Entry summary

_chemical_formula_structural             'Dy~5~ Ni~2~ In~4~'
_chemical_formula_sum                    'Dy5 In4 Ni2'
_chemical_name_mineral                   ?
_chemical_compound_source                ?
_chemical_name_structure_type            Lu~5~Ni~2~In~4~,oP22,55
_chemical_formula_weight                 1389.2

# Bibliographic data

_publ_section_title
;
Investigation of the crystal structure, magnetic phase transition and magnetocaloric effect in R~5~Ni~2~In~4~ (R= Dy, Ho and Er) compounds
;
_journal_coden_ASTM                      IERME5
_journal_name_full                       Intermetallics
_journal_year                            2018
_journal_volume                          100
_journal_page_first                      136
_journal_page_last                       141
_journal_language                        English
loop_
 _publ_author_name
 _publ_author_address
'Zhang Z.'
;
Northeastern University (NEU)
Key Laboratory of Electromagnetic Processing of Materials
Shenyang / Liaoning
China
;
'Dong X.'
;
Northeastern University (NEU)
Key Laboratory of Electromagnetic Processing of Materials
Shenyang / Liaoning
China
;
'Wang Q.'
;
Northeastern University (NEU)
Key Laboratory of Electromagnetic Processing of Materials
Shenyang / Liaoning
China
;
'Li L.'
;
Northeastern University (NEU)
Key Laboratory of Electromagnetic Processing of Materials
Shenyang / Liaoning
China
;

# Standardized crystallographic data

_cell_length_a                           7.9023
_cell_length_b                           17.8316
_cell_length_c                           3.5843
_cell_angle_alpha                        90
_cell_angle_beta                         90
_cell_angle_gamma                        90
_cell_volume                             505.1
_cell_formula_units_Z                    2
_space_group_IT_number                   55
_space_group_name_H-M_alt                'P b a m'
loop_
 _space_group_symop_id
 _space_group_symop_operation_xyz
 1 'x, y, z'
 2 '1/2-x, 1/2+y, -z'
 3 '1/2-x, 1/2+y, z'
 4 '-x, -y, -z'
 5 '-x, -y, z'
 6 '1/2+x, 1/2-y, -z'
 7 '1/2+x, 1/2-y, z'
 8 'x, y, -z'
loop_
 _atom_type_symbol
 Ni
 In
 Dy
loop_
 _atom_site_label
 _atom_site_type_symbol
 _atom_site_symmetry_multiplicity
 _atom_site_Wyckoff_symbol
 _atom_site_fract_x
 _atom_site_fract_y
 _atom_site_fract_z
 _atom_site_occupancy
 Ni Ni 4 h 0.0269 0.3047 0.5 1
 In1 In 4 h 0.2954 0.0691 0.5 1
 In2 In 4 h 0.4281 0.3487 0.5 1
 Dy3 Dy 4 g 0.1216 0.4148 0 1
 Dy2 Dy 4 g 0.243 0.2205 0 1
 Dy1 Dy 2 a 0 0 0 1


_exptl_crystal_colour                    ?
_exptl_crystal_density_meas              ?
_exptl_crystal_density_diffrn            9.13
_cell_measurement_temperature            ?
_cell_measurement_radiation              ?
_cell_measurement_reflns_used            ?
_diffrn_ambient_temperature              ?
_diffrn_measurement_device               'automatic diffractometer'
_diffrn_measurement_device_type          'Rigaku D/MAX-2550'
_diffrn_radiation_type                   ?
_diffrn_reflns_number                    ?
_exptl_absorpt_coefficient_mu            ?
_exptl_absorpt_correction_type           ?
_computing_structure_solution            'starting values from the literature'
_refine_ls_number_parameters             ?
_refine_ls_number_reflns                 ?
_refine_ls_R_factor_gt                   ?
_refine_ls_wR_factor_gt                  ?
_pd_proc_ls_proof_R_factor               ?
_pd_proc_ls_proof_wR_factor              0.0494
_refine_ls_R_I_factor                    0.037

# End of data set 1535508

