##############################################################################
#                                                                            #
# Ce-Ge-Rh         # Ce3Rh4Ge4                                     # 1535392 #
#                                                                            #
##############################################################################
#                                                                            #
#                           Pearson's Crystal Data                           #
#      Crystal Structure Database for Inorganic Compounds (on DVD)           #
#                              Release 2023/24                               #
#                  Editors: Pierre Villars and Karin Cenzual                 #
#                                                                            #
#   Copyright (c) ASM International & Material Phases Data System (MPDS),    #
# Switzerland & National Institute for Materials Science (NIMS), Japan, 2023 #
#                   All rights reserved. Version 2023.07                     #
#                                                                            #
#   This copy of Pearson's Crystal Data is licensed to:                      #
#   Hunter College - City University of New York                             #
#                                                                            #
##############################################################################

data_1535392
_audit_creation_date                     2024-02-24
_audit_creation_method
;
Pearson's Crystal Data browser
;
#_database_code_PCD                      1535392
_database_code_PDF                       ?

# Entry summary

_chemical_formula_structural             'Ce~3~ Rh~4~ Ge~4~'
_chemical_formula_sum                    'Ce3 Ge4 Rh4'
_chemical_name_mineral                   ?
_chemical_compound_source                ?
_chemical_name_structure_type            U~3~Ni~4~Si~4~,oI22,71
_chemical_formula_weight                 1122.3

# Bibliographic data

_publ_section_title
'Two superstructures of Ce~3~Rh~4~Ge~4~'                                      
_journal_coden_ASTM                      ZKCMAJ
_journal_name_full                       'Z. Kristallogr. - Cryst. Mater.'
_journal_year                            2018
_journal_volume                          233
_journal_page_first                      81
_journal_page_last                       95
_journal_language                        English
loop_
 _publ_author_name
 _publ_author_address
'Vosswinkel D.'
;
Munster University (WWU)
Institut fur Anorganische und Analytische Chemie
Munster
Germany
;
'Nakhl M.'
;
Lebanese University (UL)
Fanar
Lebanon
;
'Ouaini N.'
;
Kaslik Holy Spirit University (USEK)
Jounieh
Lebanon
;
'Pottgen R.'
;
Munster University (WWU)
Institut fur Anorganische und Analytische Chemie
Munster
Germany
;
'Hoffmann R.D.'
;
Munster University (WWU)
Institut fur Anorganische und Analytische Chemie
Munster
Germany
;
'Svitlyk V.'
;
European Synchrotron Radiation Facility (ESRF)
Grenoble
France
;
'Hermes W.'
;
Munster University (WWU)
Institut fur Anorganische und Analytische Chemie
Munster
Germany
;
'Greiwe M.'
;
Munster University (WWU)
Institut fur Anorganische und Analytische Chemie
Munster
Germany
;
'Niehaus O.'
;
Munster University (WWU)
Institut fur Anorganische und Analytische Chemie
Munster
Germany
;
'Chevalier B.'
;
Bordeaux I University
Institut de Chimie de la Matiere Condensee de Bordeaux (ICMCB)
Pessac
France
;
'Matar S.F.'
;
Bordeaux I University
Institut de Chimie de la Matiere Condensee de Bordeaux (ICMCB)
Pessac
France
;
'Al Alam A.F.'
;
Kaslik Holy Spirit University (USEK)
Jounieh
Lebanon
;

# Standardized crystallographic data

_cell_length_a                           4.1
_cell_length_b                           4.235
_cell_length_c                           25.081
_cell_angle_alpha                        90
_cell_angle_beta                         90
_cell_angle_gamma                        90
_cell_volume                             435.5
_cell_formula_units_Z                    2
_space_group_IT_number                   71
_space_group_name_H-M_alt                'I m m m'
loop_
 _space_group_symop_id
 _space_group_symop_operation_xyz
 1 'x, y, z'
 2 '-x, -y, -z'
 3 '-x, -y, z'
 4 '-x, y, -z'
 5 '-x, y, z'
 6 'x, -y, -z'
 7 'x, -y, z'
 8 'x, y, -z'
 9 '1/2+x, 1/2+y, 1/2+z'
 10 '1/2-x, 1/2-y, 1/2-z'
 11 '1/2-x, 1/2-y, 1/2+z'
 12 '1/2-x, 1/2+y, 1/2-z'
 13 '1/2-x, 1/2+y, 1/2+z'
 14 '1/2+x, 1/2-y, 1/2-z'
 15 '1/2+x, 1/2-y, 1/2+z'
 16 '1/2+x, 1/2+y, 1/2-z'
loop_
 _atom_type_symbol
 Rh
 Ge
 Ce
loop_
 _atom_site_label
 _atom_site_type_symbol
 _atom_site_symmetry_multiplicity
 _atom_site_Wyckoff_symbol
 _atom_site_fract_x
 _atom_site_fract_y
 _atom_site_fract_z
 _atom_site_occupancy
 Rh1 Rh 4 j 0.5 0 0.099 1
 Ge1 Ge 4 j 0.5 0 0.1973 1
 Ce1 Ce 4 j 0.5 0 0.3544 1
 Rh2 Rh 4 i 0 0 0.2505 1
 Ge2 Ge 4 i 0 0 0.4503 1
 Ce2 Ce 2 a 0 0 0 1


_exptl_crystal_colour                    ?
_exptl_crystal_density_meas              ?
_exptl_crystal_density_diffrn            8.56
_cell_measurement_temperature            300
_cell_measurement_radiation              'X-rays, Mo Ka'
_cell_measurement_wavelength             0.71073
_cell_measurement_reflns_used            ?
_diffrn_ambient_temperature              300
_diffrn_measurement_device               'automatic diffractometer'
_diffrn_measurement_device_type          'STOE STADIVARI'
_diffrn_radiation_type                   'X-rays, Mo Ka'
_diffrn_radiation_wavelength             0.71073
_diffrn_reflns_number                    4713
_diffrn_reflns_theta_min                 1.6
_diffrn_reflns_theta_max                 32.2
_exptl_absorpt_coefficient_mu            36.2
_exptl_absorpt_correction_type           ?
_computing_structure_solution            'charge flipping, Fourier synthesis'
_refine_ls_number_parameters             25
_refine_ls_number_reflns                 186
_refine_ls_R_factor_gt                   0.0192
_refine_ls_wR_factor_gt                  0.0414

# End of data set 1535392

