##############################################################################
#                                                                            #
# Ho-In-Ni         # Ho2Ni2In rt                                   # 1537060 #
#                                                                            #
##############################################################################
#                                                                            #
#                           Pearson's Crystal Data                           #
#      Crystal Structure Database for Inorganic Compounds (on DVD)           #
#                              Release 2023/24                               #
#                  Editors: Pierre Villars and Karin Cenzual                 #
#                                                                            #
#   Copyright (c) ASM International & Material Phases Data System (MPDS),    #
# Switzerland & National Institute for Materials Science (NIMS), Japan, 2023 #
#                   All rights reserved. Version 2023.07                     #
#                                                                            #
#   This copy of Pearson's Crystal Data is licensed to:                      #
#   Hunter College - City University of New York                             #
#                                                                            #
##############################################################################

data_1537060
_audit_creation_date                     2024-02-25
_audit_creation_method
;
Pearson's Crystal Data browser
;
#_database_code_PCD                      1537060
_database_code_PDF                       ?

# Entry summary

_chemical_formula_structural             'Ho~2~ Ni~2~ In'
_chemical_formula_sum                    'Ho2 In Ni2'
_chemical_name_mineral                   ?
_chemical_compound_source                ?
_chemical_name_structure_type            Mn~2~AlB~2~,oS10,65
_chemical_formula_weight                 562.1

# Bibliographic data

_publ_section_title
;
Structural and cryogenic magnetic properties of RE~2~Ni~2~In (RE= Pr, Nd, Dy and Ho) compounds
;
_journal_coden_ASTM                      DTARAF
_journal_name_full                       'Dalton Trans.'
_journal_year                            2019
_journal_volume                          48
_journal_page_first                      17792
_journal_page_last                       17799
_journal_language                        English
loop_
 _publ_author_name
 _publ_author_address
'Zhang Z.'
;
Northeastern University (NEU)
Key Laboratory of Electromagnetic Processing of Materials
Shenyang / Liaoning
China
;
'Wang P.'
;
Northeastern University (NEU)
Key Laboratory of Electromagnetic Processing of Materials
Shenyang / Liaoning
China
;
'Rong H.'
;
Northeastern University (NEU)
Key Laboratory of Electromagnetic Processing of Materials
Shenyang / Liaoning
China
;
'Li L.'
;
Northeastern University (NEU)
Key Laboratory of Electromagnetic Processing of Materials
Shenyang / Liaoning
China
;

# Standardized crystallographic data

_cell_length_a                           3.8948
_cell_length_b                           14.113
_cell_length_c                           3.6441
_cell_angle_alpha                        90
_cell_angle_beta                         90
_cell_angle_gamma                        90
_cell_volume                             200.3
_cell_formula_units_Z                    2
_space_group_IT_number                   65
_space_group_name_H-M_alt                'C m m m'
loop_
 _space_group_symop_id
 _space_group_symop_operation_xyz
 1 'x, y, z'
 2 '-x, -y, -z'
 3 '-x, -y, z'
 4 '-x, y, -z'
 5 '-x, y, z'
 6 'x, -y, -z'
 7 'x, -y, z'
 8 'x, y, -z'
 9 '1/2+x, 1/2+y, z'
 10 '1/2-x, 1/2-y, -z'
 11 '1/2-x, 1/2-y, z'
 12 '1/2-x, 1/2+y, -z'
 13 '1/2-x, 1/2+y, z'
 14 '1/2+x, 1/2-y, -z'
 15 '1/2+x, 1/2-y, z'
 16 '1/2+x, 1/2+y, -z'

# Atomic positions taken from type-defining entry

loop_
 _atom_type_symbol
 Ho
 Ni
 In
loop_
 _atom_site_label
 _atom_site_type_symbol
 _atom_site_symmetry_multiplicity
 _atom_site_Wyckoff_symbol
 _atom_site_fract_x
 _atom_site_fract_y
 _atom_site_fract_z
 _atom_site_occupancy
 Ho1 Ho 4 j 0 0.355 0.5 1
 Ni1 Ni 4 i 0 0.209 0 1
 In1 In 2 a 0 0 0 1


_exptl_crystal_colour                    ?
_exptl_crystal_density_meas              ?
_exptl_crystal_density_diffrn            9.32
_cell_measurement_temperature            ?
_cell_measurement_radiation              'X-rays, Cu Ka'
_cell_measurement_reflns_used            ?
_diffrn_ambient_temperature              ?
_diffrn_measurement_device               'automatic diffractometer'
_diffrn_measurement_device_type          ?
_diffrn_radiation_type                   ?
_diffrn_reflns_number                    ?
_exptl_absorpt_coefficient_mu            ?
_exptl_absorpt_correction_type           ?
_computing_structure_solution            ?
_refine_ls_number_parameters             ?
_refine_ls_number_reflns                 ?
_refine_ls_R_factor_gt                   ?
_refine_ls_wR_factor_gt                  ?

# End of data set 1537060

