##############################################################################
#                                                                            #
# Co-Ge-Yb         # Yb0.5Co3Ge3                                   # 1538210 #
#                                                                            #
##############################################################################
#                                                                            #
#                           Pearson's Crystal Data                           #
#      Crystal Structure Database for Inorganic Compounds (on DVD)           #
#                              Release 2023/24                               #
#                  Editors: Pierre Villars and Karin Cenzual                 #
#                                                                            #
#   Copyright (c) ASM International & Material Phases Data System (MPDS),    #
# Switzerland & National Institute for Materials Science (NIMS), Japan, 2023 #
#                   All rights reserved. Version 2023.07                     #
#                                                                            #
#   This copy of Pearson's Crystal Data is licensed to:                      #
#   Hunter College - City University of New York                             #
#                                                                            #
##############################################################################

data_1538210
_audit_creation_date                     2024-02-24
_audit_creation_method
;
Pearson's Crystal Data browser
;
#_database_code_PCD                      1538210
_database_code_PDF                       ?

# Entry summary

_chemical_formula_structural             'Yb~0.5~ Co~3~ Ge~3~'
_chemical_formula_sum                    'Co3 Ge3 Yb0.46'
_chemical_name_mineral                   ?
_chemical_compound_source                ?
_chemical_name_structure_type            Yb~0.5~Co~3~Ge~3~,hP9,191
_chemical_formula_weight                 481.2

# Bibliographic data

_publ_section_title
'Refine intervention: Characterizing disordered Yb~0.5~Co~3~Ge~3~'            
_journal_coden_ASTM                      CGDEFU
_journal_name_full                       'Cryst. Growth Des.'
_journal_year                            2020
_journal_volume                          20
_journal_page_first                      6715
_journal_page_last                       6721
_journal_language                        English
loop_
 _publ_author_name
 _publ_author_address
'Weiland A.'
;
University of Texas UT Dallas
Department of Chemistry and Biochemistry
Richardson
U.S.A. Texas
;
'Eddy L.J.'
;
University of Texas UT Dallas
Department of Chemistry and Biochemistry
Richardson
U.S.A. Texas
;
'McCandless G.T.'
;
University of Texas UT Dallas
Department of Chemistry and Biochemistry
Richardson
U.S.A. Texas
;
'Hodovanets H.'
;
University of Maryland College Park (UMCP)
Department of Physics
College Park
U.S.A. Maryland
;
'Paglione J.'
;
University of Maryland College Park (UMCP)
Department of Physics
College Park
U.S.A. Maryland
;
'Chan J.Y.'
;
University of Texas UT Dallas
Department of Chemistry and Biochemistry
Richardson
U.S.A. Texas
;

# Standardized crystallographic data

_cell_length_a                           5.0949
_cell_length_b                           5.0949
_cell_length_c                           3.9136
_cell_angle_alpha                        90
_cell_angle_beta                         90
_cell_angle_gamma                        120
_cell_volume                             88
_cell_formula_units_Z                    1
_space_group_IT_number                   191
_space_group_name_H-M_alt                'P 6/m m m'
loop_
 _space_group_symop_id
 _space_group_symop_operation_xyz
 1 'x, y, z'
 2 '-x+y, -x, -z'
 3 '-x+y, -x, z'
 4 '-x+y, y, -z'
 5 '-x+y, y, z'
 6 '-x, -x+y, -z'
 7 '-x, -x+y, z'
 8 '-x, -y, -z'
 9 '-x, -y, z'
 10 '-y, -x, -z'
 11 '-y, -x, z'
 12 '-y, x-y, -z'
 13 '-y, x-y, z'
 14 'x, x-y, -z'
 15 'x, x-y, z'
 16 'x, y, -z'
 17 'x-y, -y, -z'
 18 'x-y, -y, z'
 19 'x-y, x, -z'
 20 'x-y, x, z'
 21 'y, -x+y, -z'
 22 'y, -x+y, z'
 23 'y, x, -z'
 24 'y, x, z'
loop_
 _atom_type_symbol
 Co
 Ge
 Yb
loop_
 _atom_site_label
 _atom_site_type_symbol
 _atom_site_symmetry_multiplicity
 _atom_site_Wyckoff_symbol
 _atom_site_fract_x
 _atom_site_fract_y
 _atom_site_fract_z
 _atom_site_occupancy
 Co1 Co 3 f 0.5 0 0 1
 Ge2 Ge 2 e 0 0 0.1875 0.463
 Ge1 Ge 2 d 0.333333 0.666667 0.5 1
 Yb1 Yb 1 b 0 0 0.5 0.463
 Ge3 Ge 1 a 0 0 0 0.074


_exptl_crystal_colour                    black
_exptl_crystal_density_meas              ?
_exptl_crystal_density_diffrn            9.08
_cell_measurement_temperature            298
_cell_measurement_radiation              'X-rays, Mo Ka'
_cell_measurement_reflns_used            ?
_diffrn_ambient_temperature              ?
_diffrn_measurement_device               'automatic diffractometer'
_diffrn_measurement_device_type          'Bruker AXS D8 QUEST'
_diffrn_radiation_type                   'X-rays, Mo Ka'
_diffrn_radiation_wavelength             0.71073
_diffrn_reflns_number                    ?
_exptl_absorpt_coefficient_mu            51.02
_exptl_absorpt_correction_type           empirical
_computing_structure_solution            'direct methods, Fourier synthesis'
_refine_ls_number_parameters             ?
_refine_ls_number_reflns                 ?
_refine_ls_R_factor_gt                   0.014
_refine_ls_wR_factor_gt                  0.028

# End of data set 1538210

