##############################################################################
#                                                                            #
# Ge-Ru-Y          # Y4RuGe8                                       # 1539637 #
#                                                                            #
##############################################################################
#                                                                            #
#                           Pearson's Crystal Data                           #
#      Crystal Structure Database for Inorganic Compounds (on DVD)           #
#                              Release 2023/24                               #
#                  Editors: Pierre Villars and Karin Cenzual                 #
#                                                                            #
#   Copyright (c) ASM International & Material Phases Data System (MPDS),    #
# Switzerland & National Institute for Materials Science (NIMS), Japan, 2023 #
#                   All rights reserved. Version 2023.07                     #
#                                                                            #
#   This copy of Pearson's Crystal Data is licensed to:                      #
#   Hunter College - City University of New York                             #
#                                                                            #
##############################################################################

data_1539637
_audit_creation_date                     2024-02-25
_audit_creation_method
;
Pearson's Crystal Data browser
;
#_database_code_PCD                      1539637
_database_code_PDF                       ?

# Entry summary

_chemical_formula_structural             'Y~4~ Ru Ge~8~'
_chemical_formula_sum                    'Ge8 Ru Y4'
_chemical_name_mineral                   ?
_chemical_compound_source                ?
_chemical_name_structure_type            Y~4~RuGe~8~,aP26,2
_chemical_formula_weight                 1037.7

# Bibliographic data

_publ_section_title
;
Superconductivity in Y~4~RuGe~8~ with a vacancy-ordered CeNiSi~2~-type superstructure
;
_journal_coden_ASTM                      CMATEX
_journal_name_full                       'Chem. Mater.'
_journal_year                            2021
_journal_volume                          33
_journal_page_first                      7839
_journal_page_last                       7847
_journal_language                        English
loop_
 _publ_author_name
 _publ_author_address
'Bao J.K.'
;
Argonne National Laboratory
Material Science Division
Argonne
U.S.A. Illinois
;
'Van Smaalen S.'
;
Bayreuth University
Laboratorium fur Kristallographie
Bayreuth
Germany
;
'Kanatzidis M.G.'
;
Argonne National Laboratory
Material Science Division
Argonne
U.S.A. Illinois
;
'Zheng H.'
;
Argonne National Laboratory
Leadership Computing Facility
Argonne
U.S.A. Illinois
;
'Wen J.'
;
Argonne National Laboratory
Center for Nanoscale Materials
Argonne
U.S.A. Illinois
;
'Ramakrishnan S.'
;
Bayreuth University
Laboratorium fur Kristallographie
Bayreuth
Germany
;
'Zheng H.'
;
University of Colorado Boulder
Department of Physics
Boulder
U.S.A. Colorado
;
'Jiang J.S.'
;
Argonne National Laboratory
Material Science Division
Argonne
U.S.A. Illinois
;
'Bugaris D.'
;
Argonne National Laboratory
Material Science Division
Argonne
U.S.A. Illinois
;
'Cao G.'
;
University of Colorado Boulder
Department of Physics
Boulder
U.S.A. Colorado
;
'Chung D.Y.'
;
Argonne National Laboratory
Material Science Division
Argonne
U.S.A. Illinois
;

# Standardized crystallographic data

_cell_length_a                           5.768
_cell_length_b                           8.2042
_cell_length_c                           11.5093
_cell_angle_alpha                        79.696
_cell_angle_beta                         88.491
_cell_angle_gamma                        79.637
_cell_volume                             527.1
_cell_formula_units_Z                    2
_space_group_IT_number                   2
_space_group_name_H-M_alt                'P -1'
loop_
 _space_group_symop_id
 _space_group_symop_operation_xyz
 1 'x, y, z'
 2 '-x, -y, -z'
loop_
 _atom_type_symbol
 Ge
 Y
 Ru
loop_
 _atom_site_label
 _atom_site_type_symbol
 _atom_site_symmetry_multiplicity
 _atom_site_Wyckoff_symbol
 _atom_site_fract_x
 _atom_site_fract_y
 _atom_site_fract_z
 _atom_site_occupancy
 Ge6 Ge 2 i 0.02346 0.00968 0.38745 1
 Ge5 Ge 2 i 0.03665 0.998 0.1084 1
 Ge2 Ge 2 i 0.14374 0.41515 0.69907 1
 Ge1 Ge 2 i 0.15788 0.37834 0.20175 1
 Y1 Y 2 i 0.17547 0.29759 0.4681 1
 Y2 Y 2 i 0.17694 0.30091 0.95766 1
 Ru1 Ru 2 i 0.22317 0.10568 0.73718 1
 Y4 Y 2 i 0.32435 0.70742 0.28523 1
 Ge4 Ge 2 i 0.34835 0.6015 0.05166 1
 Ge8 Ge 2 i 0.47191 0.00915 0.1094 1
 Ge7 Ge 2 i 0.53499 0.00044 0.60909 1
 Ge3 Ge 2 i 0.65086 0.3894 0.45364 1
 Y3 Y 2 i 0.67891 0.28476 0.21337 1


_exptl_crystal_colour                    black
_exptl_crystal_density_meas              ?
_exptl_crystal_density_diffrn            6.54
_cell_measurement_temperature            ?
_cell_measurement_radiation              'X-rays, Ag Ka'
_cell_measurement_wavelength             0.56089
_cell_measurement_reflns_used            11980
_diffrn_ambient_temperature              298
_diffrn_measurement_device               'automatic diffractometer'
_diffrn_measurement_device_type          'Marresearch MAR345'
_diffrn_radiation_type                   'X-rays, Ag Ka'
_diffrn_radiation_wavelength             0.56089
_diffrn_reflns_number                    78792
_diffrn_reflns_theta_min                 2.02
_diffrn_reflns_theta_max                 29.72
_exptl_absorpt_coefficient_mu            24.314
_exptl_absorpt_correction_type           empirical
_computing_structure_solution            'direct methods, Fourier synthesis'
_refine_ls_number_parameters             120
_refine_ls_number_reflns                 5984
_refine_ls_R_factor_gt                   0.0334
_refine_ls_wR_factor_gt                  0.0380

# End of data set 1539637

