##############################################################################
#                                                                            #
# Ce-Ni-Si         # CeNi2Si2                                      #  300806 #
#                                                                            #
##############################################################################
#                                                                            #
#                           Pearson's Crystal Data                           #
#      Crystal Structure Database for Inorganic Compounds (on DVD)           #
#                              Release 2023/24                               #
#                  Editors: Pierre Villars and Karin Cenzual                 #
#                                                                            #
#   Copyright (c) ASM International & Material Phases Data System (MPDS),    #
# Switzerland & National Institute for Materials Science (NIMS), Japan, 2023 #
#                   All rights reserved. Version 2023.07                     #
#                                                                            #
#   This copy of Pearson's Crystal Data is licensed to:                      #
#   Hunter College - City University of New York                             #
#                                                                            #
##############################################################################

data_300806
_audit_creation_date                     2024-02-24
_audit_creation_method
;
Pearson's Crystal Data browser
;
#_database_code_PCD                      300806
_database_code_PDF                       04-001-4416

# Entry summary

_chemical_formula_structural             'Ce Ni~2~ Si~2~'
_chemical_formula_sum                    'Ce Ni2 Si2'
_chemical_name_mineral                   ?
_chemical_compound_source                ?
_chemical_name_structure_type            CeAl~2~Ga~2~,tI10,139
_chemical_formula_weight                 313.7

# Bibliographic data

_publ_section_title
;
Crystal structure of the compound CeNi~2~Si~2~ and isostructural compounds in related systems
;
_journal_coden_ASTM                      INOMAF
_journal_name_full                       'Inorg. Mater.'
_journal_year                            1966
_journal_volume                          2
_journal_page_first                      1861
_journal_page_last                       1864
_journal_language                        English
loop_
 _publ_author_name
 _publ_author_address
'Bodak O.I.'
;
Lviv Ivan Franko State University
Department of Inorganic Chemistry
Lviv
Ukraine
;
'Gladyshevskii E.I.'
;
Lviv Ivan Franko State University
Department of Inorganic Chemistry
Lviv
Ukraine
;
'Krypyakevych P.I.'
;
Lviv Ivan Franko State University
Department of Inorganic Chemistry
Lviv
Ukraine
;

# Standardized crystallographic data

_cell_length_a                           4.027
_cell_length_b                           4.027
_cell_length_c                           9.557
_cell_angle_alpha                        90
_cell_angle_beta                         90
_cell_angle_gamma                        90
_cell_volume                             155
_cell_formula_units_Z                    2
_space_group_IT_number                   139
_space_group_name_H-M_alt                'I 4/m m m'
loop_
 _space_group_symop_id
 _space_group_symop_operation_xyz
 1 'x, y, z'
 2 '-x, -y, -z'
 3 '-x, -y, z'
 4 '-x, y, -z'
 5 '-x, y, z'
 6 '-y, -x, -z'
 7 '-y, -x, z'
 8 '-y, x, -z'
 9 '-y, x, z'
 10 'x, -y, -z'
 11 'x, -y, z'
 12 'x, y, -z'
 13 'y, -x, -z'
 14 'y, -x, z'
 15 'y, x, -z'
 16 'y, x, z'
 17 '1/2+x, 1/2+y, 1/2+z'
 18 '1/2-x, 1/2-y, 1/2-z'
 19 '1/2-x, 1/2-y, 1/2+z'
 20 '1/2-x, 1/2+y, 1/2-z'
 21 '1/2-x, 1/2+y, 1/2+z'
 22 '1/2-y, 1/2-x, 1/2-z'
 23 '1/2-y, 1/2-x, 1/2+z'
 24 '1/2-y, 1/2+x, 1/2-z'
 25 '1/2-y, 1/2+x, 1/2+z'
 26 '1/2+x, 1/2-y, 1/2-z'
 27 '1/2+x, 1/2-y, 1/2+z'
 28 '1/2+x, 1/2+y, 1/2-z'
 29 '1/2+y, 1/2-x, 1/2-z'
 30 '1/2+y, 1/2-x, 1/2+z'
 31 '1/2+y, 1/2+x, 1/2-z'
 32 '1/2+y, 1/2+x, 1/2+z'
loop_
 _atom_type_symbol
 Si
 Ni
 Ce
loop_
 _atom_site_label
 _atom_site_type_symbol
 _atom_site_symmetry_multiplicity
 _atom_site_Wyckoff_symbol
 _atom_site_fract_x
 _atom_site_fract_y
 _atom_site_fract_z
 _atom_site_occupancy
 Si Si 4 e 0 0 0.35 1
 Ni Ni 4 d 0 0.5 0.25 1
 Ce Ce 2 a 0 0 0 1


_exptl_crystal_colour                    ?
_exptl_crystal_density_meas              ?
_exptl_crystal_density_diffrn            6.72
_cell_measurement_temperature            ?
_cell_measurement_radiation              'X-rays, Cr K'
_cell_measurement_reflns_used            ?
_diffrn_ambient_temperature              ?
_diffrn_measurement_device               film
_diffrn_measurement_device_type          ?
_diffrn_radiation_type                   ?
_diffrn_reflns_number                    ?
_exptl_absorpt_coefficient_mu            ?
_exptl_absorpt_correction_type           ?
_computing_structure_solution            ?
_refine_ls_number_parameters             ?
_refine_ls_number_reflns                 ?
_refine_ls_R_factor_gt                   ?
_refine_ls_wR_factor_gt                  ?

# Published diffraction lines

loop_
 _refln_index_h
 _refln_index_k
 _refln_index_l
 _refln_d_spacing
 _refln_intensity_meas
 1 0 1 3.73 30
 1 1 0 2.86 5
 1 0 3 2.497 50
 1 1 2 2.445 100
 0 0 4 2.382 20
 2 0 0 2.014 40
 2 1 1 1.77 5
 1 0 5 1.73 20
 2 1 3 1.572 30
 2 0 4 1.541 20
 2 2 0 1.424 20
 1 1 6 1.39 50
 3 0 1 1.328 5
 2 1 5 1.311 40
 1 0 7 1.294 5
 3 1 0 1.273 5
 3 0 3 1.239 30
 3 1 2 1.232 100
 2 2 4 1.225 30
 0 0 8 1.195 30

# End of data set 300806

