##############################################################################
#                                                                            #
# Ce-Ga-Ni         # CeNiGa3 rt                                    #  301488 #
#                                                                            #
##############################################################################
#                                                                            #
#                           Pearson's Crystal Data                           #
#      Crystal Structure Database for Inorganic Compounds (on DVD)           #
#                              Release 2023/24                               #
#                  Editors: Pierre Villars and Karin Cenzual                 #
#                                                                            #
#   Copyright (c) ASM International & Material Phases Data System (MPDS),    #
# Switzerland & National Institute for Materials Science (NIMS), Japan, 2023 #
#                   All rights reserved. Version 2023.07                     #
#                                                                            #
#   This copy of Pearson's Crystal Data is licensed to:                      #
#   Hunter College - City University of New York                             #
#                                                                            #
##############################################################################

data_301488
_audit_creation_date                     2024-02-24
_audit_creation_method
;
Pearson's Crystal Data browser
;
#_database_code_PCD                      301488
_database_code_PDF                       ?

# Entry summary

_chemical_formula_structural             'Ce Ni Ga~3~'
_chemical_formula_sum                    'Ce Ga3 Ni'
_chemical_name_mineral                   ?
_chemical_compound_source                ?
_chemical_name_structure_type            CePtGa~3~,oF20,42
_chemical_formula_weight                 408.0

# Bibliographic data

_publ_section_title
;
Physical properties of some ternary Ce intermetallics with the transition metals Ni and Pd
;
_journal_coden_ASTM                      JMMMDC
_journal_name_full                       'J. Magn. Magn. Mater.'
_journal_year                            1993
_journal_volume                          128
_journal_page_first                      124
_journal_page_last                       128
_journal_language                        English
loop_
 _publ_author_name
 _publ_author_address
'Cava R.J.'
;
AT&T Bell Laboratories Inc.
Murray Hill
U.S.A. New Jersey
;
'Ramirez A.P.'
;
AT&T Bell Laboratories Inc.
Murray Hill
U.S.A. New Jersey
;
'Takagi H.'
;
AT&T Bell Laboratories Inc.
Murray Hill
U.S.A. New Jersey
;
'Krajewski J.J.'
;
AT&T Bell Laboratories Inc.
Murray Hill
U.S.A. New Jersey
;
'Peck W.F. Jr.'
;
AT&T Bell Laboratories Inc.
Murray Hill
U.S.A. New Jersey
;

# Standardized crystallographic data

_cell_length_a                           5.98
_cell_length_b                           6.02
_cell_length_c                           10.23
_cell_angle_alpha                        90
_cell_angle_beta                         90
_cell_angle_gamma                        90
_cell_volume                             368.3
_cell_formula_units_Z                    4
_space_group_IT_number                   42
_space_group_name_H-M_alt                'F m m 2'
loop_
 _space_group_symop_id
 _space_group_symop_operation_xyz
 1 'x, y, z'
 2 '-x, -y, z'
 3 '-x, y, z'
 4 'x, -y, z'
 5 'x, 1/2+y, 1/2+z'
 6 '-x, 1/2-y, 1/2+z'
 7 '-x, 1/2+y, 1/2+z'
 8 'x, 1/2-y, 1/2+z'
 9 '1/2+x, y, 1/2+z'
 10 '1/2-x, -y, 1/2+z'
 11 '1/2-x, y, 1/2+z'
 12 '1/2+x, -y, 1/2+z'
 13 '1/2+x, 1/2+y, z'
 14 '1/2-x, 1/2-y, z'
 15 '1/2-x, 1/2+y, z'
 16 '1/2+x, 1/2-y, z'

# Atomic positions taken from type-defining entry

loop_
 _atom_type_symbol
 Ga
 Ni
 Ce
loop_
 _atom_site_label
 _atom_site_type_symbol
 _atom_site_symmetry_multiplicity
 _atom_site_Wyckoff_symbol
 _atom_site_fract_x
 _atom_site_fract_y
 _atom_site_fract_z
 _atom_site_occupancy
 Ga1 Ga 8 b 0.25 0.25 0.3804 1
 Ga1A Ga 4 a 0 0 0.0 0.500
 Ni1B Ni 4 a 0 0 0.0 0.500
 Ga2A Ga 4 a 0 0 0.2592 0.500
 Ni2B Ni 4 a 0 0 0.2592 0.500
 Ce1 Ce 4 a 0 0 0.6224 1


_exptl_crystal_colour                    ?
_exptl_crystal_density_meas              ?
_exptl_crystal_density_diffrn            7.36
_cell_measurement_temperature            ?
_cell_measurement_radiation              X-rays
_cell_measurement_reflns_used            ?
_diffrn_ambient_temperature              ?
_diffrn_measurement_device               'automatic diffractometer'
_diffrn_measurement_device_type          ?
_diffrn_radiation_type                   ?
_diffrn_reflns_number                    ?
_exptl_absorpt_coefficient_mu            ?
_exptl_absorpt_correction_type           ?
_computing_structure_solution            ?
_refine_ls_number_parameters             ?
_refine_ls_number_reflns                 ?
_refine_ls_R_factor_gt                   ?
_refine_ls_wR_factor_gt                  ?

# End of data set 301488

