##############################################################################
#                                                                            #
# Rh-Sc-Si         # ScRhSi2                                       #  302222 #
#                                                                            #
##############################################################################
#                                                                            #
#                           Pearson's Crystal Data                           #
#      Crystal Structure Database for Inorganic Compounds (on DVD)           #
#                              Release 2023/24                               #
#                  Editors: Pierre Villars and Karin Cenzual                 #
#                                                                            #
#   Copyright (c) ASM International & Material Phases Data System (MPDS),    #
# Switzerland & National Institute for Materials Science (NIMS), Japan, 2023 #
#                   All rights reserved. Version 2023.07                     #
#                                                                            #
#   This copy of Pearson's Crystal Data is licensed to:                      #
#   Hunter College - City University of New York                             #
#                                                                            #
##############################################################################

data_302222
_audit_creation_date                     2024-02-25
_audit_creation_method
;
Pearson's Crystal Data browser
;
#_database_code_PCD                      302222
_database_code_PDF                       04-008-8828

# Entry summary

_chemical_formula_structural             'Sc Rh Si~2~'
_chemical_formula_sum                    'Rh Sc Si2'
_chemical_name_mineral                   ?
_chemical_compound_source                ?
_chemical_name_structure_type            ScRhSi~2~,oP16,62
_chemical_formula_weight                 204.0

# Bibliographic data

_publ_section_title
'Partial phase diagram of the system Sc-Rh-Si'                                
_journal_coden_ASTM                      JCOMAH
_journal_name_full                       'J. Less-Common Met.'
_journal_year                            1979
_journal_volume                          68
_journal_page_first                      P1
_journal_page_last                       P8
_journal_language                        English
loop_
 _publ_author_name
 _publ_author_address
'Braun H.F.'
;
University of California UC San Diego
Institute for Pure and Applied Physical Sciences
La Jolla
U.S.A. California
;
'Burri G.'
;
Lausanne University (UNIL)
Institut de Physique Experimentale
Lausanne
Switzerland
;
'Rinderer L.'
;
Lausanne University (UNIL)
Institut de Physique Experimentale
Lausanne
Switzerland
;

# Standardized crystallographic data

_cell_length_a                           6.3
_cell_length_b                           4.03
_cell_length_c                           9.54
_cell_angle_alpha                        90
_cell_angle_beta                         90
_cell_angle_gamma                        90
_cell_volume                             242.2
_cell_formula_units_Z                    4
_space_group_IT_number                   62
_space_group_name_H-M_alt                'P n m a'
loop_
 _space_group_symop_id
 _space_group_symop_operation_xyz
 1 'x, y, z'
 2 '1/2-x, -y, 1/2+z'
 3 '1/2-x, 1/2+y, 1/2+z'
 4 '-x, -y, -z'
 5 '-x, 1/2+y, -z'
 6 '1/2+x, 1/2-y, 1/2-z'
 7 '1/2+x, y, 1/2-z'
 8 'x, 1/2-y, z'

# Atomic positions taken from type-defining entry

loop_
 _atom_type_symbol
 Rh
 Si
 Sc
loop_
 _atom_site_label
 _atom_site_type_symbol
 _atom_site_symmetry_multiplicity
 _atom_site_Wyckoff_symbol
 _atom_site_fract_x
 _atom_site_fract_y
 _atom_site_fract_z
 _atom_site_occupancy
 Rh1 Rh 4 c 0.0832 0.25 0.5992 1
 Si1 Si 4 c 0.2318 0.25 0.0282 1
 Sc1 Sc 4 c 0.2385 0.25 0.3181 1
 Si2 Si 4 c 0.4573 0.25 0.6587 1


_exptl_crystal_colour                    ?
_exptl_crystal_density_meas              5.36
_exptl_crystal_density_diffrn            5.60
_cell_measurement_temperature            ?
_cell_measurement_radiation              'X-rays, Cu Ka'
_cell_measurement_reflns_used            ?
_diffrn_ambient_temperature              ?
_diffrn_measurement_device               'automatic diffractometer'
_diffrn_measurement_device_type          ?
_diffrn_radiation_type                   ?
_diffrn_reflns_number                    ?
_exptl_absorpt_coefficient_mu            ?
_exptl_absorpt_correction_type           ?
_computing_structure_solution            ?
_refine_ls_number_parameters             ?
_refine_ls_number_reflns                 ?
_refine_ls_R_factor_gt                   ?
_refine_ls_wR_factor_gt                  ?

# End of data set 302222

