##############################################################################
#                                                                            #
# Ni-Si-Sm         # Sm3NiSi2                                      #  302318 #
#                                                                            #
##############################################################################
#                                                                            #
#                           Pearson's Crystal Data                           #
#      Crystal Structure Database for Inorganic Compounds (on DVD)           #
#                              Release 2023/24                               #
#                  Editors: Pierre Villars and Karin Cenzual                 #
#                                                                            #
#   Copyright (c) ASM International & Material Phases Data System (MPDS),    #
# Switzerland & National Institute for Materials Science (NIMS), Japan, 2023 #
#                   All rights reserved. Version 2023.07                     #
#                                                                            #
#   This copy of Pearson's Crystal Data is licensed to:                      #
#   Hunter College - City University of New York                             #
#                                                                            #
##############################################################################

data_302318
_audit_creation_date                     2024-02-25
_audit_creation_method
;
Pearson's Crystal Data browser
;
#_database_code_PCD                      302318
_database_code_PDF                       04-001-5692

# Entry summary

_chemical_formula_structural             'Sm~3~ Ni Si~2~'
_chemical_formula_sum                    'Ni Si2 Sm3'
_chemical_name_mineral                   ?
_chemical_compound_source                ?
_chemical_name_structure_type            Gd~3~NiSi~2~,oP24,62
_chemical_formula_weight                 566.1

# Bibliographic data

_publ_section_title
;
Sm~3~NiSi~2~, Tb~3~NiSi~2~ and Dy~3~NiSi~2~ with the Gd~3~NiSi~2~ structure type
;
_journal_coden_ASTM                      JCOMAH
_journal_name_full                       'J. Less-Common Met.'
_journal_year                            1982
_journal_volume                          83
_journal_page_first                      L33
_journal_page_last                       L35
_journal_language                        English
loop_
 _publ_author_name
 _publ_author_address
'Klepp K.O.'
;
Geneva University (UNIGE)
Laboratoire de Cristallographie aux Rayons X
Geneva
Switzerland
;
'Parthe E.'
;
Geneva University (UNIGE)
Laboratoire de Cristallographie aux Rayons X
Geneva
Switzerland
;

# Standardized crystallographic data

_cell_length_a                           11.505
_cell_length_b                           4.189
_cell_length_c                           11.388
_cell_angle_alpha                        90
_cell_angle_beta                         90
_cell_angle_gamma                        90
_cell_volume                             548.8
_cell_formula_units_Z                    4
_space_group_IT_number                   62
_space_group_name_H-M_alt                'P n m a'
loop_
 _space_group_symop_id
 _space_group_symop_operation_xyz
 1 'x, y, z'
 2 '1/2-x, -y, 1/2+z'
 3 '1/2-x, 1/2+y, 1/2+z'
 4 '-x, -y, -z'
 5 '-x, 1/2+y, -z'
 6 '1/2+x, 1/2-y, 1/2-z'
 7 '1/2+x, y, 1/2-z'
 8 'x, 1/2-y, z'
loop_
 _atom_type_symbol
 Sm
 Ni
 Si
loop_
 _atom_site_label
 _atom_site_type_symbol
 _atom_site_symmetry_multiplicity
 _atom_site_Wyckoff_symbol
 _atom_site_fract_x
 _atom_site_fract_y
 _atom_site_fract_z
 _atom_site_occupancy
 Sm(1) Sm 4 c 0.05775 0.25 0.37559 1
 Ni Ni 4 c 0.1286 0.25 0.1332 1
 Sm(2) Sm 4 c 0.21373 0.25 0.69768 1
 Si(1) Si 4 c 0.3013 0.25 0.0061 1
 Sm(3) Sm 4 c 0.38207 0.25 0.44029 1
 Si(2) Si 4 c 0.4726 0.25 0.6866 1


_exptl_crystal_colour                    ?
_exptl_crystal_density_meas              ?
_exptl_crystal_density_diffrn            6.85
_cell_measurement_temperature            ?
_cell_measurement_radiation              X-rays
_cell_measurement_reflns_used            ?
_diffrn_ambient_temperature              ?
_diffrn_measurement_device               'automatic diffractometer'
_diffrn_measurement_device_type          'Philips PW1100'
_diffrn_radiation_type                   X-rays
_diffrn_reflns_number                    ?
_exptl_absorpt_coefficient_mu            ?
_exptl_absorpt_correction_type           ?
_computing_structure_solution            'starting values from the literature'
_refine_ls_number_parameters             38
_refine_ls_number_reflns                 375
_refine_ls_R_factor_gt                   0.023
_refine_ls_wR_factor_gt                  0.029

# End of data set 302318

