##############################################################################
#                                                                            #
# Ge-Ho-Pd         # Ho2PdGe6                                      #  302452 #
#                                                                            #
##############################################################################
#                                                                            #
#                           Pearson's Crystal Data                           #
#      Crystal Structure Database for Inorganic Compounds (on DVD)           #
#                              Release 2023/24                               #
#                  Editors: Pierre Villars and Karin Cenzual                 #
#                                                                            #
#   Copyright (c) ASM International & Material Phases Data System (MPDS),    #
# Switzerland & National Institute for Materials Science (NIMS), Japan, 2023 #
#                   All rights reserved. Version 2023.07                     #
#                                                                            #
#   This copy of Pearson's Crystal Data is licensed to:                      #
#   Hunter College - City University of New York                             #
#                                                                            #
##############################################################################

data_302452
_audit_creation_date                     2024-02-25
_audit_creation_method
;
Pearson's Crystal Data browser
;
#_database_code_PCD                      302452
_database_code_PDF                       04-001-5786

# Entry summary

_chemical_formula_structural             'Ho~2~ Pd Ge~6~'
_chemical_formula_sum                    'Ge6 Ho2 Pd'
_chemical_name_mineral                   ?
_chemical_compound_source                ?
_chemical_name_structure_type            CuCe~2~Ge~6~,oS18,38
_chemical_formula_weight                 871.8

# Bibliographic data

_publ_section_title
'New ternary holmium-palladium germanides'                                    
_journal_coden_ASTM                      INOMAF
_journal_name_full                       'Inorg. Mater.'
_journal_year                            1991
_journal_volume                          27
_journal_page_first                      2195
_journal_page_last                       2197
_journal_language                        English
loop_
 _publ_author_name
 _publ_author_address
'Bodak O.I.'
;
Lviv Ivan Franko State University
Department of Inorganic Chemistry
Lviv
Ukraine
;
'Sologub O.L.'
;
Lviv Ivan Franko State University
Department of Inorganic Chemistry
Lviv
Ukraine
;

# Standardized crystallographic data

_cell_length_a                           4.08
_cell_length_b                           4.007
_cell_length_c                           21.4
_cell_angle_alpha                        90
_cell_angle_beta                         90
_cell_angle_gamma                        90
_cell_volume                             349.9
_cell_formula_units_Z                    2
_space_group_IT_number                   38
_space_group_name_H-M_alt                'A m m 2'
loop_
 _space_group_symop_id
 _space_group_symop_operation_xyz
 1 'x, y, z'
 2 '-x, -y, z'
 3 '-x, y, z'
 4 'x, -y, z'
 5 'x, 1/2+y, 1/2+z'
 6 '-x, 1/2-y, 1/2+z'
 7 '-x, 1/2+y, 1/2+z'
 8 'x, 1/2-y, 1/2+z'
loop_
 _atom_type_symbol
 Ho
 Ge
 Pd
loop_
 _atom_site_label
 _atom_site_type_symbol
 _atom_site_symmetry_multiplicity
 _atom_site_Wyckoff_symbol
 _atom_site_fract_x
 _atom_site_fract_y
 _atom_site_fract_z
 _atom_site_occupancy
 Ho(1) Ho 2 b 0.5 0 0.221 1
 Ge(1) Ge 2 b 0.5 0 0.497 1
 Ge(2) Ge 2 b 0.5 0 0.606 1
 Ho(2) Ho 2 b 0.5 0 0.887 1
 Ge(6) Ge 2 a 0 0 0.0 1
 Ge(5) Ge 2 a 0 0 0.115 1
 Ge(4) Ge 2 a 0 0 0.344 1
 Pd Pd 2 a 0 0 0.451 1
 Ge(3) Ge 2 a 0 0 0.776 1


_exptl_crystal_colour                    ?
_exptl_crystal_density_meas              ?
_exptl_crystal_density_diffrn            8.28
_cell_measurement_temperature            ?
_cell_measurement_radiation              'X-rays, Cr Ka'
_cell_measurement_reflns_used            ?
_diffrn_ambient_temperature              ?
_diffrn_measurement_device               'automatic diffractometer'
_diffrn_measurement_device_type          DRON-2
_diffrn_radiation_type                   'X-rays, Fe Ka'
_diffrn_reflns_number                    ?
_exptl_absorpt_coefficient_mu            ?
_exptl_absorpt_correction_type           ?
_computing_structure_solution            'starting values from the literature'
_refine_ls_number_parameters             ?
_refine_ls_number_reflns                 ?
_refine_ls_R_factor_gt                   0.117
_refine_ls_wR_factor_gt                  ?
_pd_proc_ls_proof_R_factor               ?
_pd_proc_ls_proof_wR_factor              ?
_refine_ls_R_I_factor                    ?

# Published diffraction lines

loop_
 _refln_index_h
 _refln_index_k
 _refln_index_l
 _refln_d_spacing
 _refln_intensity_meas
 1 0 6 2.675 3960
 1 1 3 2.654 10000
 0 1 7 2.427 1210
 1 1 5 2.371 1120
 1 0 8 2.235 310
 0 0 10 2.142 330
 1 1 7 2.084 650
 0 1 9 2.043 4160
 2 0 2 1.999 3050
 0 2 2 1.969 40
 2 0 4 1.906 90
 1 0 10 1.893 750
 1 1 9 1.828 1010
 0 1 11 1.751 290
 1 2 4 1.705 350
 1 0 12 1.633 470
 2 0 8 1.624 450
 1 1 11 1.605 2280
 2 1 7 1.561 410
 1 2 8 1.493 160
 2 0 10 1.478 100
 2 1 9 1.444 1030
 2 2 0 1.427 1120
 2 2 2 1.415 160
 1 2 10 1.377 330
 0 3 5 1.276 1070
 1 3 1 1.267 960
 1 3 3 1.249 730

# End of data set 302452

