##############################################################################
#                                                                            #
# La-Ru-Si         # LaRu3Si2                                      #  302737 #
#                                                                            #
##############################################################################
#                                                                            #
#                           Pearson's Crystal Data                           #
#      Crystal Structure Database for Inorganic Compounds (on DVD)           #
#                              Release 2023/24                               #
#                  Editors: Pierre Villars and Karin Cenzual                 #
#                                                                            #
#   Copyright (c) ASM International & Material Phases Data System (MPDS),    #
# Switzerland & National Institute for Materials Science (NIMS), Japan, 2023 #
#                   All rights reserved. Version 2023.07                     #
#                                                                            #
#   This copy of Pearson's Crystal Data is licensed to:                      #
#   Hunter College - City University of New York                             #
#                                                                            #
##############################################################################

data_302737
_audit_creation_date                     2024-02-25
_audit_creation_method
;
Pearson's Crystal Data browser
;
#_database_code_PCD                      302737
_database_code_PDF                       04-008-8864

# Entry summary

_chemical_formula_structural             'La Ru~3~ Si~2~'
_chemical_formula_sum                    'La Ru3 Si2'
_chemical_name_mineral                   ?
_chemical_compound_source                ?
_chemical_name_structure_type            LaRu~3~Si~2~,hP12,176
_chemical_formula_weight                 498.3

# Bibliographic data

_publ_section_title
;
The crystal structure of a new ternary silicide in the system rare-earth-ruthenium-silicon
;
_journal_coden_ASTM                      MRBUAC
_journal_name_full                       'Mater. Res. Bull.'
_journal_year                            1980
_journal_volume                          15
_journal_page_first                      1493
_journal_page_last                       1498
_journal_language                        English
loop_
 _publ_author_name
 _publ_author_address
'Van Den Berg J.M.'
;
AT&T Bell Laboratories Inc.
Murray Hill
U.S.A. New Jersey
;
'Barz H.'
;
AT&T Bell Laboratories Inc.
Murray Hill
U.S.A. New Jersey
;

# Standardized crystallographic data

_cell_length_a                           5.676
_cell_length_b                           5.676
_cell_length_c                           7.12
_cell_angle_alpha                        90
_cell_angle_beta                         90
_cell_angle_gamma                        120
_cell_volume                             198.7
_cell_formula_units_Z                    2
_space_group_IT_number                   176
_space_group_name_H-M_alt                'P 63/m'
loop_
 _space_group_symop_id
 _space_group_symop_operation_xyz
 1 'x, y, z'
 2 '-x+y, -x, 1/2-z'
 3 '-x+y, -x, z'
 4 '-x, -y, -z'
 5 '-x, -y, 1/2+z'
 6 '-y, x-y, 1/2-z'
 7 '-y, x-y, z'
 8 'x, y, 1/2-z'
 9 'x-y, x, -z'
 10 'x-y, x, 1/2+z'
 11 'y, -x+y, -z'
 12 'y, -x+y, 1/2+z'
loop_
 _atom_type_symbol
 Ru
 Si
 La
loop_
 _atom_site_label
 _atom_site_type_symbol
 _atom_site_symmetry_multiplicity
 _atom_site_Wyckoff_symbol
 _atom_site_fract_x
 _atom_site_fract_y
 _atom_site_fract_z
 _atom_site_occupancy
 Ru Ru 6 h 0.01 0.49 0.25 1
 Si Si 4 f 0.333333 0.666667 0.0 1
 La La 2 b 0 0 0 1


_exptl_crystal_colour                    ?
_exptl_crystal_density_meas              7.5
_exptl_crystal_density_diffrn            8.33
_cell_measurement_temperature            ?
_cell_measurement_radiation              'X-rays, Cu Ka1'
_cell_measurement_reflns_used            ?
_diffrn_ambient_temperature              ?
_diffrn_measurement_device               'Guinier-Huber film'
_diffrn_measurement_device_type          ?
_diffrn_radiation_type                   'X-rays, Cu Ka1'
_diffrn_reflns_number                    ?
_exptl_absorpt_coefficient_mu            ?
_exptl_absorpt_correction_type           ?
_computing_structure_solution            'starting values from the literature'
_refine_ls_number_parameters             ?
_refine_ls_number_reflns                 ?
_refine_ls_R_factor_gt                   ?
_refine_ls_wR_factor_gt                  ?
_pd_proc_ls_proof_R_factor               ?
_pd_proc_ls_proof_wR_factor              ?
_refine_ls_R_I_factor                    ?

# Published diffraction lines

loop_
 _refln_index_h
 _refln_index_k
 _refln_index_l
 _refln_d_spacing
 _refln_intensity_meas
 1 0 0 4.929 3
 0 0 2 3.572 4
 1 0 2 2.889 8
 1 1 0 2.843 4
 1 1 1 2.637 2
 2 0 0 2.461 9
 1 1 2 2.222 8
 2 0 2 2.025 6
 1 1 3 1.821 3
 2 1 1 1.798 3
 0 0 4 1.782 5
 2 1 2 1.648 7
 3 0 0 1.639 3
 1 1 4 1.508 3
 3 0 2 1.489 6
 2 1 3 1.463 3
 2 0 4 1.443 7.5
 2 2 0 1.419 7
 1 0 5 1.368 2
 2 2 2 1.318 3
 1 1 5 1.273 6
 4 0 0 1.229 5.5
 3 0 4 1.205 3
 3 1 3 1.181 3
 4 0 2 1.161 4
 1 0 6 1.153 4

# End of data set 302737

