##############################################################################
#                                                                            #
# Fe-Ho-Si         # HoFe1.2Si0.8                                  #  302856 #
#                                                                            #
##############################################################################
#                                                                            #
#                           Pearson's Crystal Data                           #
#      Crystal Structure Database for Inorganic Compounds (on DVD)           #
#                              Release 2023/24                               #
#                  Editors: Pierre Villars and Karin Cenzual                 #
#                                                                            #
#   Copyright (c) ASM International & Material Phases Data System (MPDS),    #
# Switzerland & National Institute for Materials Science (NIMS), Japan, 2023 #
#                   All rights reserved. Version 2023.07                     #
#                                                                            #
#   This copy of Pearson's Crystal Data is licensed to:                      #
#   Hunter College - City University of New York                             #
#                                                                            #
##############################################################################

data_302856
_audit_creation_date                     2024-02-24
_audit_creation_method
;
Pearson's Crystal Data browser
;
#_database_code_PCD                      302856
_database_code_PDF                       04-001-6105

# Entry summary

_chemical_formula_structural             'Ho Fe~1.2~ Si~0.8~'
_chemical_formula_sum                    'Fe1.2 Ho Si0.8'
_chemical_name_mineral                   ?
_chemical_compound_source                ?
_chemical_name_structure_type            PbClF,tP6,129
_chemical_formula_weight                 254.4

# Bibliographic data

_publ_section_title
'Investigation of the Ternary System Ho-Fe-Si at 500 \%C'                     
_journal_coden_ASTM                      ZEMTAE
_journal_name_full                       'Z. Metallkd.'
_journal_year                            1993
_journal_volume                          84
_journal_page_first                      773
_journal_page_last                       775
_journal_language                        English
loop_
 _publ_author_name
 _publ_author_address
'Li J.'
;
Guangxi University
Department of Physics
Nanning / Guangxi
China
;
'Zhuang Y.H.'
;
Guangxi University
Department of Physics
Nanning / Guangxi
China
;
'Lin W.'
;
Guangxi University
Department of Physics
Nanning / Guangxi
China
;

# Standardized crystallographic data

_cell_length_a                           3.927
_cell_length_b                           3.927
_cell_length_c                           6.932
_cell_angle_alpha                        90
_cell_angle_beta                         90
_cell_angle_gamma                        90
_cell_volume                             106.9
_cell_formula_units_Z                    2
_space_group_IT_number                   129
_space_group_name_H-M_alt                'P 4/n m m (origin choice 2)'
loop_
 _space_group_symop_id
 _space_group_symop_operation_xyz
 1 'x, y, z'
 2 '1/2-x, 1/2-y, z'
 3 '1/2-x, y, z'
 4 '-x, -y, -z'
 5 '-x, 1/2+y, -z'
 6 '1/2-y, 1/2-x, z'
 7 '1/2-y, x, z'
 8 '-y, -x, -z'
 9 '-y, 1/2+x, -z'
 10 '1/2+x, -y, -z'
 11 '1/2+x, 1/2+y, -z'
 12 'x, 1/2-y, z'
 13 '1/2+y, -x, -z'
 14 '1/2+y, 1/2+x, -z'
 15 'y, 1/2-x, z'
 16 'y, x, z'

# Atomic positions taken from type-defining entry

loop_
 _atom_type_symbol
 Si
 Fe
 Ho
loop_
 _atom_site_label
 _atom_site_type_symbol
 _atom_site_symmetry_multiplicity
 _atom_site_Wyckoff_symbol
 _atom_site_fract_x
 _atom_site_fract_y
 _atom_site_fract_z
 _atom_site_occupancy
 Si1A Si 2 c 0.25 0.25 0.2058 0.800
 Fe1B Fe 2 c 0.25 0.25 0.2058 0.200
 Ho1 Ho 2 c 0.25 0.25 0.6497 1
 Fe1 Fe 2 a 0.75 0.25 0 1


_exptl_crystal_colour                    ?
_exptl_crystal_density_meas              ?
_exptl_crystal_density_diffrn            7.90
_cell_measurement_temperature            ?
_cell_measurement_radiation              'X-rays, Co Ka'
_cell_measurement_reflns_used            ?
_diffrn_ambient_temperature              ?
_diffrn_measurement_device               'automatic diffractometer'
_diffrn_measurement_device_type          ?
_diffrn_radiation_type                   ?
_diffrn_reflns_number                    ?
_exptl_absorpt_coefficient_mu            ?
_exptl_absorpt_correction_type           ?
_computing_structure_solution            ?
_refine_ls_number_parameters             ?
_refine_ls_number_reflns                 ?
_refine_ls_R_factor_gt                   ?
_refine_ls_wR_factor_gt                  ?

# Published diffraction lines

loop_
 _refln_index_h
 _refln_index_k
 _refln_index_l
 _refln_d_spacing
 _refln_intensity_meas
 0 0 2 3.476 21.5
 1 0 1 3.43 48.9
 1 1 0 2.785 18.5
 1 0 2 2.601 74.1
 0 0 3 2.315 100
 1 1 2 2.167 70.3
 2 0 0 1.965 23.7
 2 1 1 1.704 11.1
 1 0 4 1.585 18.5
 2 1 2 1.567 18.5
 2 0 3 1.495 17.0
 0 0 5 1.387 14.8
 1 0 5 1.308 14.1

# End of data set 302856

