##############################################################################
#                                                                            #
# Co-Si-U          # UCo1.5Si0.5                                   #  303155 #
#                                                                            #
##############################################################################
#                                                                            #
#                           Pearson's Crystal Data                           #
#      Crystal Structure Database for Inorganic Compounds (on DVD)           #
#                              Release 2023/24                               #
#                  Editors: Pierre Villars and Karin Cenzual                 #
#                                                                            #
#   Copyright (c) ASM International & Material Phases Data System (MPDS),    #
# Switzerland & National Institute for Materials Science (NIMS), Japan, 2023 #
#                   All rights reserved. Version 2023.07                     #
#                                                                            #
#   This copy of Pearson's Crystal Data is licensed to:                      #
#   Hunter College - City University of New York                             #
#                                                                            #
##############################################################################

data_303155
_audit_creation_date                     2024-02-24
_audit_creation_method
;
Pearson's Crystal Data browser
;
#_database_code_PCD                      303155
_database_code_PDF                       04-001-6339

# Entry summary

_chemical_formula_structural             'U Co~1.5~ Si~0.5~'
_chemical_formula_sum                    'Co1.50 Si0.50 U'
_chemical_name_mineral                   ?
_chemical_compound_source                ?
_chemical_name_structure_type            MgZn~2~,hP12,194
_chemical_formula_weight                 340.5

# Bibliographic data

_publ_section_title
'Die Kristallstruktur von U~2~Cr~3~Si, U~4~Mn~5~Si~3~ und U~2~Co~3~Si'        
_journal_coden_ASTM                      MOCMB7
_journal_name_full                       'Monatsh. Chem.'
_journal_year                            1964
_journal_volume                          95
_journal_page_first                      1219
_journal_page_last                       1224
_journal_language                        German
loop_
 _publ_author_name
 _publ_author_address
'Kusma J.B.'
;
Vienna University
Institut fur Physikalische Chemie
Vienna
Austria
;
'Nowotny H.'
;
Vienna University
Institut fur Physikalische Chemie
Vienna
Austria
;

# Standardized crystallographic data

_cell_length_a                           5.139
_cell_length_b                           5.139
_cell_length_c                           7.585
_cell_angle_alpha                        90
_cell_angle_beta                         90
_cell_angle_gamma                        120
_cell_volume                             173.5
_cell_formula_units_Z                    4
_space_group_IT_number                   194
_space_group_name_H-M_alt                'P 63/m m c'
loop_
 _space_group_symop_id
 _space_group_symop_operation_xyz
 1 'x, y, z'
 2 '-x+y, -x, 1/2-z'
 3 '-x+y, -x, z'
 4 '-x+y, y, 1/2-z'
 5 '-x+y, y, z'
 6 '-x, -x+y, -z'
 7 '-x, -x+y, 1/2+z'
 8 '-x, -y, -z'
 9 '-x, -y, 1/2+z'
 10 '-y, -x, 1/2-z'
 11 '-y, -x, z'
 12 '-y, x-y, 1/2-z'
 13 '-y, x-y, z'
 14 'x, x-y, 1/2-z'
 15 'x, x-y, z'
 16 'x, y, 1/2-z'
 17 'x-y, -y, -z'
 18 'x-y, -y, 1/2+z'
 19 'x-y, x, -z'
 20 'x-y, x, 1/2+z'
 21 'y, -x+y, -z'
 22 'y, -x+y, 1/2+z'
 23 'y, x, -z'
 24 'y, x, 1/2+z'
loop_
 _atom_type_symbol
 Co
 U
 Si
loop_
 _atom_site_label
 _atom_site_type_symbol
 _atom_site_symmetry_multiplicity
 _atom_site_Wyckoff_symbol
 _atom_site_fract_x
 _atom_site_fract_y
 _atom_site_fract_z
 _atom_site_occupancy
 Co Co 6 h 0.167 0.334 0.25 1
 U U 4 f 0.333333 0.666667 0.562 1
 Si Si 2 a 0 0 0 1


_exptl_crystal_colour                    ?
_exptl_crystal_density_meas              ?
_exptl_crystal_density_diffrn            13.04
_cell_measurement_temperature            ?
_cell_measurement_radiation              'X-rays, Cr Ka'
_cell_measurement_reflns_used            ?
_diffrn_ambient_temperature              ?
_diffrn_measurement_device               'Debye-Scherrer film'
_diffrn_measurement_device_type          ?
_diffrn_radiation_type                   'X-rays, Cr Ka'
_diffrn_reflns_number                    ?
_exptl_absorpt_coefficient_mu            ?
_exptl_absorpt_correction_type           ?
_computing_structure_solution            'starting values from the literature'
_refine_ls_number_parameters             ?
_refine_ls_number_reflns                 ?
_refine_ls_R_factor_gt                   ?
_refine_ls_wR_factor_gt                  ?
_pd_proc_ls_proof_R_factor               ?
_pd_proc_ls_proof_wR_factor              ?
_refine_ls_R_I_factor                    ?

# Published diffraction lines

loop_
 _refln_index_h
 _refln_index_k
 _refln_index_l
 _refln_d_spacing
 _refln_intensity_meas
 1 0 0 4.429 5
 1 0 1 3.81 7
 1 0 2 2.879 5
 1 1 0 2.558 40
 2 0 0 2.218 5
 1 0 3 2.192 60
 2 0 1 2.126 60
 2 1 0 1.68 3
 2 0 3 1.669 5
 2 1 1 1.642 10
 2 1 2 1.537 5
 3 0 0 1.482 20
 1 0 5 1.434 15
 2 1 3 1.399 80
 3 0 2 1.381 20
 2 2 0 1.284 100
 0 0 6 1.264 10
 2 1 4 1.258 3
 2 0 5 1.253 100
 3 1 0 1.235 10
 3 1 1 1.217 50
 3 1 2 1.174 30

# End of data set 303155

