##############################################################################
#                                                                            #
# Eu-Pd-Si         # EuPdSi                                        #  303599 #
#                                                                            #
##############################################################################
#                                                                            #
#                           Pearson's Crystal Data                           #
#      Crystal Structure Database for Inorganic Compounds (on DVD)           #
#                              Release 2023/24                               #
#                  Editors: Pierre Villars and Karin Cenzual                 #
#                                                                            #
#   Copyright (c) ASM International & Material Phases Data System (MPDS),    #
# Switzerland & National Institute for Materials Science (NIMS), Japan, 2023 #
#                   All rights reserved. Version 2023.07                     #
#                                                                            #
#   This copy of Pearson's Crystal Data is licensed to:                      #
#   Hunter College - City University of New York                             #
#                                                                            #
##############################################################################

data_303599
_audit_creation_date                     2024-02-24
_audit_creation_method
;
Pearson's Crystal Data browser
;
#_database_code_PCD                      303599
_database_code_PDF                       04-001-6653

# Entry summary

_chemical_formula_structural             'Eu Pd Si'
_chemical_formula_sum                    'Eu Pd Si'
_chemical_name_mineral                   ?
_chemical_compound_source                ?
_chemical_name_structure_type            ZrSO,cP12,198
_chemical_formula_weight                 286.4

# Bibliographic data

_publ_section_title
;
Topological relation between the LaIrSi- and the EuNiGe-type structures in ternary phases MPdSi (M= Ca, Eu, Sr, Ba)
;
_journal_coden_ASTM                      JSSCBI
_journal_name_full                       'J. Solid State Chem.'
_journal_year                            1991
_journal_volume                          91
_journal_page_first                      250
_journal_page_last                       263
_journal_language                        English
loop_
 _publ_author_name
 _publ_author_address
'Evers J.'
;
Munich Ludwig Maximilian University (LMU)
Institut fur Anorganische Chemie
Munich
Germany
;
'Oehlinger G.'
;
Munich Ludwig Maximilian University (LMU)
Institut fur Anorganische Chemie
Munich
Germany
;
'Polborn K.'
;
Munich Ludwig Maximilian University (LMU)
Institut fur Anorganische Chemie
Munich
Germany
;
'Sendlinger B.'
;
Munich Ludwig Maximilian University (LMU)
Institut fur Anorganische Chemie
Munich
Germany
;

# Standardized crystallographic data

_cell_length_a                           6.419
_cell_length_b                           6.419
_cell_length_c                           6.419
_cell_angle_alpha                        90
_cell_angle_beta                         90
_cell_angle_gamma                        90
_cell_volume                             264.5
_cell_formula_units_Z                    4
_space_group_IT_number                   198
_space_group_name_H-M_alt                'P 21 3'
loop_
 _space_group_symop_id
 _space_group_symop_operation_xyz
 1 'x, y, z'
 2 '1/2-x, -y, 1/2+z'
 3 '-x, 1/2+y, 1/2-z'
 4 '1/2-y, -z, 1/2+x'
 5 '-y, 1/2+z, 1/2-x'
 6 '1/2-z, -x, 1/2+y'
 7 '-z, 1/2+x, 1/2-y'
 8 '1/2+x, 1/2-y, -z'
 9 '1/2+y, 1/2-z, -x'
 10 'y, z, x'
 11 '1/2+z, 1/2-x, -y'
 12 'z, x, y'
loop_
 _atom_type_symbol
 Pd
 Eu
 Si
loop_
 _atom_site_label
 _atom_site_type_symbol
 _atom_site_symmetry_multiplicity
 _atom_site_Wyckoff_symbol
 _atom_site_fract_x
 _atom_site_fract_y
 _atom_site_fract_z
 _atom_site_occupancy
 Pd Pd 4 a 0.09 0.09 0.09 1
 Eu Eu 4 a 0.369 0.369 0.369 1
 Si Si 4 a 0.663 0.663 0.663 1


_exptl_crystal_colour                    ?
_exptl_crystal_density_meas              ?
_exptl_crystal_density_diffrn            7.19
_cell_measurement_temperature            ?
_cell_measurement_radiation              'X-rays, Mo Ka'
_cell_measurement_reflns_used            ?
_diffrn_ambient_temperature              ?
_diffrn_measurement_device               'automatic diffractometer'
_diffrn_measurement_device_type          'Enraf-Nonius CAD4'
_diffrn_radiation_type                   'X-rays, Mo Ka'
_diffrn_reflns_number                    917
_diffrn_reflns_theta_min                 4
_diffrn_reflns_theta_max                 24
_exptl_absorpt_coefficient_mu            10.1
_exptl_absorpt_correction_type           ?
_computing_structure_solution            'direct methods, Fourier synthesis'
_refine_ls_number_parameters             ?
_refine_ls_number_reflns                 356
_refine_ls_R_factor_gt                   0.0724
_refine_ls_wR_factor_gt                  0.0263

# End of data set 303599

