##############################################################################
#                                                                            #
# La-Ru-Si         # LaRuSi2                                       #  303886 #
#                                                                            #
##############################################################################
#                                                                            #
#                           Pearson's Crystal Data                           #
#      Crystal Structure Database for Inorganic Compounds (on DVD)           #
#                              Release 2023/24                               #
#                  Editors: Pierre Villars and Karin Cenzual                 #
#                                                                            #
#   Copyright (c) ASM International & Material Phases Data System (MPDS),    #
# Switzerland & National Institute for Materials Science (NIMS), Japan, 2023 #
#                   All rights reserved. Version 2023.07                     #
#                                                                            #
#   This copy of Pearson's Crystal Data is licensed to:                      #
#   Hunter College - City University of New York                             #
#                                                                            #
##############################################################################

data_303886
_audit_creation_date                     2024-02-25
_audit_creation_method
;
Pearson's Crystal Data browser
;
#_database_code_PCD                      303886
_database_code_PDF                       04-008-9057

# Entry summary

_chemical_formula_structural             'La Ru Si~2~'
_chemical_formula_sum                    'La Ru Si2'
_chemical_name_mineral                   ?
_chemical_compound_source                ?
_chemical_name_structure_type            NdRuSi~2~,mP8,11
_chemical_formula_weight                 296.1

# Bibliographic data

_publ_section_title
'LaRuSi~2~: A monoclinic variant of the orthorhombic CeNiSi~2~-type structure'
_journal_coden_ASTM                      JALCEU
_journal_name_full                       'J. Alloys Compd.'
_journal_year                            1992
_journal_volume                          185
_journal_page_first                      235
_journal_page_last                       240
_journal_language                        English
loop_
 _publ_author_name
 _publ_author_address
'Welter R.'
;
Nancy I Henri Poincare University
Laboratoire de Chimie du Solide Mineral (LCSM)
Vandoeuvre-les-Nancy
France
;
'Venturini G.'
;
Nancy I Henri Poincare University
Laboratoire de Chimie du Solide Mineral (LCSM)
Vandoeuvre-les-Nancy
France
;
'Malaman B.'
;
Nancy I Henri Poincare University
Laboratoire de Chimie du Solide Mineral (LCSM)
Vandoeuvre-les-Nancy
France
;

# Standardized crystallographic data

_cell_length_a                           4.506
_cell_length_b                           4.11
_cell_length_c                           8.374
_cell_angle_alpha                        90
_cell_angle_beta                         99.45
_cell_angle_gamma                        90
_cell_volume                             153
_cell_formula_units_Z                    2
_space_group_IT_number                   11
_space_group_name_H-M_alt                'P 1 21/m 1'
loop_
 _space_group_symop_id
 _space_group_symop_operation_xyz
 1 'x, y, z'
 2 '-x, -y, -z'
 3 '-x, 1/2+y, -z'
 4 'x, 1/2-y, z'
loop_
 _atom_type_symbol
 Si
 Ru
 La
loop_
 _atom_site_label
 _atom_site_type_symbol
 _atom_site_symmetry_multiplicity
 _atom_site_Wyckoff_symbol
 _atom_site_fract_x
 _atom_site_fract_y
 _atom_site_fract_z
 _atom_site_occupancy
 Si(1) Si 2 e 0.0435 0.25 0.0915 1
 Ru Ru 2 e 0.1199 0.25 0.3887 1
 La La 2 e 0.4102 0.25 0.7984 1
 Si(2) Si 2 e 0.6784 0.25 0.4932 1


_exptl_crystal_colour                    ?
_exptl_crystal_density_meas              ?
_exptl_crystal_density_diffrn            6.43
_cell_measurement_temperature            ?
_cell_measurement_radiation              'X-rays, Co Ka'
_cell_measurement_reflns_used            ?
_diffrn_ambient_temperature              ?
_diffrn_measurement_device               'automatic diffractometer'
_diffrn_measurement_device_type          'Nonius CAD4'
_diffrn_radiation_type                   'X-rays, Ag Ka'
_diffrn_reflns_number                    383
_exptl_absorpt_coefficient_mu            19.4
_exptl_absorpt_correction_type           ?
_computing_structure_solution            ?
_refine_ls_number_parameters             10
_refine_ls_number_reflns                 157
_refine_ls_R_factor_gt                   0.048
_refine_ls_wR_factor_gt                  0.051

# End of data set 303886

