##############################################################################
#                                                                            #
# Co-Ga-U          # U2.1Co2Ga0.9                                  #  309704 #
#                                                                            #
##############################################################################
#                                                                            #
#                           Pearson's Crystal Data                           #
#      Crystal Structure Database for Inorganic Compounds (on DVD)           #
#                              Release 2023/24                               #
#                  Editors: Pierre Villars and Karin Cenzual                 #
#                                                                            #
#   Copyright (c) ASM International & Material Phases Data System (MPDS),    #
# Switzerland & National Institute for Materials Science (NIMS), Japan, 2023 #
#                   All rights reserved. Version 2023.07                     #
#                                                                            #
#   This copy of Pearson's Crystal Data is licensed to:                      #
#   Hunter College - City University of New York                             #
#                                                                            #
##############################################################################

data_309704
_audit_creation_date                     2024-02-24
_audit_creation_method
;
Pearson's Crystal Data browser
;
#_database_code_PCD                      309704
_database_code_PDF                       04-001-9774

# Entry summary

_chemical_formula_structural             'U~2.1~ Co~2~ Ga~0.9~'
_chemical_formula_sum                    'Co2 Ga0.93 U2.07'
_chemical_name_mineral                   ?
_chemical_compound_source                ?
_chemical_name_structure_type            Mo~2~FeB~2~,tP10,127
_chemical_formula_weight                 680.5

# Bibliographic data

_publ_section_title
'Crystal structure of U~2+x~Co~2~Ga~1-x~'                                     
_journal_coden_ASTM                      INOMAF
_journal_name_full                       'Inorg. Mater.'
_journal_year                            1995
_journal_volume                          31
_journal_page_first                      1355
_journal_page_last                       ?
_journal_language                        English
loop_
 _publ_author_name
 _publ_author_address
'Zelinskii A.V.'
;
Lviv Ivan Franko State University
Lviv
Ukraine
;
'Fedorchuk A.O.'
;
Lviv Ivan Franko State University
Department of Inorganic Chemistry
Lviv
Ukraine
;

# Standardized crystallographic data

_cell_length_a                           7.0773
_cell_length_b                           7.0773
_cell_length_c                           3.4707
_cell_angle_alpha                        90
_cell_angle_beta                         90
_cell_angle_gamma                        90
_cell_volume                             173.8
_cell_formula_units_Z                    2
_space_group_IT_number                   127
_space_group_name_H-M_alt                'P 4/m b m'
loop_
 _space_group_symop_id
 _space_group_symop_operation_xyz
 1 'x, y, z'
 2 '1/2-x, 1/2+y, -z'
 3 '1/2-x, 1/2+y, z'
 4 '-x, -y, -z'
 5 '-x, -y, z'
 6 '1/2-y, 1/2-x, -z'
 7 '1/2-y, 1/2-x, z'
 8 '-y, x, -z'
 9 '-y, x, z'
 10 '1/2+x, 1/2-y, -z'
 11 '1/2+x, 1/2-y, z'
 12 'x, y, -z'
 13 '1/2+y, 1/2+x, -z'
 14 '1/2+y, 1/2+x, z'
 15 'y, -x, -z'
 16 'y, -x, z'
loop_
 _atom_type_symbol
 U
 Co
 Ga
loop_
 _atom_site_label
 _atom_site_type_symbol
 _atom_site_symmetry_multiplicity
 _atom_site_Wyckoff_symbol
 _atom_site_fract_x
 _atom_site_fract_y
 _atom_site_fract_z
 _atom_site_occupancy
 U U 4 h 0.1769 0.6769 0.5 1
 Co Co 4 g 0.6334 0.1334 0 1
 Ga1 Ga 2 a 0 0 0 0.932
 U2 U 2 a 0 0 0 0.068


_exptl_crystal_colour                    ?
_exptl_crystal_density_meas              ?
_exptl_crystal_density_diffrn            13.00
_cell_measurement_temperature            ?
_cell_measurement_radiation              'X-rays, Cu Ka'
_cell_measurement_reflns_used            ?
_diffrn_ambient_temperature              ?
_diffrn_measurement_device               'automatic diffractometer'
_diffrn_measurement_device_type          ?
_diffrn_radiation_type                   'X-rays, Cu Ka'
_diffrn_reflns_number                    ?
_exptl_absorpt_coefficient_mu            ?
_exptl_absorpt_correction_type           ?
_computing_structure_solution            'starting values from the literature'
_refine_ls_number_parameters             ?
_refine_ls_number_reflns                 ?
_refine_ls_R_factor_gt                   ?
_refine_ls_wR_factor_gt                  ?
_pd_proc_ls_proof_R_factor               ?
_pd_proc_ls_proof_wR_factor              ?
_refine_ls_R_I_factor                    ?

# End of data set 309704

