##############################################################################
#                                                                            #
# Co-Ga-U          # UCoGa                                         #  311774 #
#                                                                            #
##############################################################################
#                                                                            #
#                           Pearson's Crystal Data                           #
#      Crystal Structure Database for Inorganic Compounds (on DVD)           #
#                              Release 2023/24                               #
#                  Editors: Pierre Villars and Karin Cenzual                 #
#                                                                            #
#   Copyright (c) ASM International & Material Phases Data System (MPDS),    #
# Switzerland & National Institute for Materials Science (NIMS), Japan, 2023 #
#                   All rights reserved. Version 2023.07                     #
#                                                                            #
#   This copy of Pearson's Crystal Data is licensed to:                      #
#   Hunter College - City University of New York                             #
#                                                                            #
##############################################################################

data_311774
_audit_creation_date                     2024-02-24
_audit_creation_method
;
Pearson's Crystal Data browser
;
#_database_code_PCD                      311774
_database_code_PDF                       04-002-1282

# Entry summary

_chemical_formula_structural             'U Co Ga'
_chemical_formula_sum                    'Co Ga U'
_chemical_name_mineral                   ?
_chemical_compound_source                ?
_chemical_name_structure_type            ZrNiAl,hP9,189
_chemical_formula_weight                 366.7

# Bibliographic data

_publ_section_title
'Structure, transport and thermal properties of UCoGa'                        
_journal_coden_ASTM                      JAPIAU
_journal_name_full                       'J. Appl. Phys.'
_journal_year                            1994
_journal_volume                          76
_journal_page_first                      7040
_journal_page_last                       7042
_journal_language                        English
loop_
 _publ_author_name
 _publ_author_address
'Purwanto A.'
;
Los Alamos National Laboratory (LANL)
Los Alamos National Laboratory (LANL)
Los Alamos
U.S.A. New Mexico
;
'Spirlet J.C.'
;
European Commission Joint Research Center (JRC)
Institute for Transuranium Elements
Karlsruhe
Germany
;
'Rebizant J.'
;
European Commission Joint Research Center (JRC)
Institute for Transuranium Elements
Karlsruhe
Germany
;
'Robinson R.A.'
;
Los Alamos National Laboratory (LANL)
Los Alamos National Laboratory (LANL)
Los Alamos
U.S.A. New Mexico
;
'Prokes K.'
;
Amsterdam University
Van der Waals-Zeeman Laboratorium
Amsterdam
Netherlands
;
'Nakotte H.'
;
Amsterdam University
Van der Waals-Zeeman Laboratorium
Amsterdam
Netherlands
;
'De Boer F.R.'
;
Amsterdam University
Van der Waals-Zeeman Laboratorium
Amsterdam
Netherlands
;
'Havela L.'
;
Charles University
Department of Metal Physics
Prague
Czech Republic
;
'Sechovsky V.'
;
Charles University
Department of Metal Physics
Prague
Czech Republic
;
'Tuan N.C.'
;
Charles University
Department of Metal Physics
Prague
Czech Republic
;
'Kergadallan Y.'
;
European Commission Joint Research Center (JRC)
Institute for Transuranium Elements
Karlsruhe
Germany
;

# Standardized crystallographic data

_cell_length_a                           6.6646
_cell_length_b                           6.6646
_cell_length_c                           3.9265
_cell_angle_alpha                        90
_cell_angle_beta                         90
_cell_angle_gamma                        120
_cell_volume                             151
_cell_formula_units_Z                    3
_space_group_IT_number                   189
_space_group_name_H-M_alt                'P -6 2 m'
loop_
 _space_group_symop_id
 _space_group_symop_operation_xyz
 1 'x, y, z'
 2 '-x+y, -x, -z'
 3 '-x+y, -x, z'
 4 '-x, -x+y, -z'
 5 '-x, -x+y, z'
 6 '-y, x-y, -z'
 7 '-y, x-y, z'
 8 'x, y, -z'
 9 'x-y, -y, -z'
 10 'x-y, -y, z'
 11 'y, x, -z'
 12 'y, x, z'
loop_
 _atom_type_symbol
 Ga
 U
 Co
loop_
 _atom_site_label
 _atom_site_type_symbol
 _atom_site_symmetry_multiplicity
 _atom_site_Wyckoff_symbol
 _atom_site_fract_x
 _atom_site_fract_y
 _atom_site_fract_z
 _atom_site_occupancy
 Ga Ga 3 g 0.23915 0 0.5 1
 U U 3 f 0.58002 0 0 1
 Co1 Co 2 d 0.333333 0.666667 0.5 1
 Co2 Co 1 a 0 0 0 1


_exptl_crystal_colour                    ?
_exptl_crystal_density_meas              ?
_exptl_crystal_density_diffrn            12.09
_cell_measurement_temperature            60
_cell_measurement_radiation              'neutrons, time-of-flight'
_cell_measurement_reflns_used            ?
_diffrn_ambient_temperature              60
_diffrn_measurement_device               'automatic diffractometer'
_diffrn_measurement_device_type          ?
_diffrn_radiation_type                   'neutrons, time-of-flight'
_diffrn_reflns_number                    ?
_exptl_absorpt_coefficient_mu            ?
_exptl_absorpt_correction_type           ?
_computing_structure_solution            'starting values from the literature'
_refine_ls_number_parameters             ?
_refine_ls_number_reflns                 ?
_refine_ls_R_factor_gt                   ?
_refine_ls_wR_factor_gt                  ?
_pd_proc_ls_proof_R_factor               0.0213
_pd_proc_ls_proof_wR_factor              0.030
_refine_ls_R_I_factor                    ?

# End of data set 311774

