##############################################################################
#                                                                            #
# Ga-Ni-Yb         # YbNi0.8Ga1.2                                  #  379455 #
#                                                                            #
##############################################################################
#                                                                            #
#                           Pearson's Crystal Data                           #
#      Crystal Structure Database for Inorganic Compounds (on DVD)           #
#                              Release 2023/24                               #
#                  Editors: Pierre Villars and Karin Cenzual                 #
#                                                                            #
#   Copyright (c) ASM International & Material Phases Data System (MPDS),    #
# Switzerland & National Institute for Materials Science (NIMS), Japan, 2023 #
#                   All rights reserved. Version 2023.07                     #
#                                                                            #
#   This copy of Pearson's Crystal Data is licensed to:                      #
#   Hunter College - City University of New York                             #
#                                                                            #
##############################################################################

data_379455
_audit_creation_date                     2024-02-24
_audit_creation_method
;
Pearson's Crystal Data browser
;
#_database_code_PCD                      379455
_database_code_PDF                       04-002-6260

# Entry summary

_chemical_formula_structural             'Yb Ni~0.8~ Ga~1.2~'
_chemical_formula_sum                    'Ga1.2 Ni0.8 Yb'
_chemical_name_mineral                   ?
_chemical_compound_source                ?
_chemical_name_structure_type            KHg~2~,oI12,74
_chemical_formula_weight                 303.7

# Bibliographic data

_publ_section_title
'New ternary gallides with the KHg~2~ and CaIn~2~ structures'                 
_journal_coden_ASTM                      INOMAF
_journal_name_full                       'Inorg. Mater.'
_journal_year                            1994
_journal_volume                          30
_journal_page_first                      1313
_journal_page_last                       1315
_journal_language                        English
loop_
 _publ_author_name
 _publ_author_address
'Vasilechko L.O.'
;
Research and Production Association "Carat"
Research and Development Institute for Materials
Lviv
Ukraine
;
'Grin Y.'
;
Lviv Ivan Franko State University
Department of Inorganic Chemistry
Lviv
Ukraine
;
'Fedorchuk A.O.'
;
Lviv Ivan Franko State University
Department of Inorganic Chemistry
Lviv
Ukraine
;

# Standardized crystallographic data

_cell_length_a                           4.332
_cell_length_b                           6.944
_cell_length_c                           7.508
_cell_angle_alpha                        90
_cell_angle_beta                         90
_cell_angle_gamma                        90
_cell_volume                             225.9
_cell_formula_units_Z                    4
_space_group_IT_number                   74
_space_group_name_H-M_alt                'I m m a'
loop_
 _space_group_symop_id
 _space_group_symop_operation_xyz
 1 'x, y, z'
 2 '-x, 1/2-y, z'
 3 '-x, -y, -z'
 4 '-x, 1/2+y, -z'
 5 '-x, y, z'
 6 'x, 1/2-y, z'
 7 'x, -y, -z'
 8 'x, 1/2+y, -z'
 9 '1/2+x, 1/2+y, 1/2+z'
 10 '1/2-x, 1-y, 1/2+z'
 11 '1/2-x, 1/2-y, 1/2-z'
 12 '1/2-x, 1+y, 1/2-z'
 13 '1/2-x, 1/2+y, 1/2+z'
 14 '1/2+x, 1-y, 1/2+z'
 15 '1/2+x, 1/2-y, 1/2-z'
 16 '1/2+x, 1+y, 1/2-z'

# Atomic positions taken from type-defining entry

loop_
 _atom_type_symbol
 Ga
 Ni
 Yb
loop_
 _atom_site_label
 _atom_site_type_symbol
 _atom_site_symmetry_multiplicity
 _atom_site_Wyckoff_symbol
 _atom_site_fract_x
 _atom_site_fract_y
 _atom_site_fract_z
 _atom_site_occupancy
 Ga1A Ga 8 h 0 0.06 0.163 0.600
 Ni1B Ni 8 h 0 0.06 0.163 0.400
 Yb1 Yb 4 e 0 0.25 0.547 1


_exptl_crystal_colour                    ?
_exptl_crystal_density_meas              ?
_exptl_crystal_density_diffrn            8.93
_cell_measurement_temperature            ?
_cell_measurement_radiation              'X-rays, Cr Ka'
_cell_measurement_reflns_used            25
_diffrn_ambient_temperature              ?
_diffrn_measurement_device               'Debye-Scherrer film'
_diffrn_measurement_device_type          ?
_diffrn_radiation_type                   ?
_diffrn_reflns_number                    ?
_exptl_absorpt_coefficient_mu            ?
_exptl_absorpt_correction_type           ?
_computing_structure_solution            ?
_refine_ls_number_parameters             ?
_refine_ls_number_reflns                 ?
_refine_ls_R_factor_gt                   ?
_refine_ls_wR_factor_gt                  ?

# End of data set 379455

