##############################################################################
#                                                                            #
# Co-Sn-U          # UCo1.5Sn2                                     #  379946 #
#                                                                            #
##############################################################################
#                                                                            #
#                           Pearson's Crystal Data                           #
#      Crystal Structure Database for Inorganic Compounds (on DVD)           #
#                              Release 2023/24                               #
#                  Editors: Pierre Villars and Karin Cenzual                 #
#                                                                            #
#   Copyright (c) ASM International & Material Phases Data System (MPDS),    #
# Switzerland & National Institute for Materials Science (NIMS), Japan, 2023 #
#                   All rights reserved. Version 2023.07                     #
#                                                                            #
#   This copy of Pearson's Crystal Data is licensed to:                      #
#   Hunter College - City University of New York                             #
#                                                                            #
##############################################################################

data_379946
_audit_creation_date                     2024-02-24
_audit_creation_method
;
Pearson's Crystal Data browser
;
#_database_code_PCD                      379946
_database_code_PDF                       04-002-6590

# Entry summary

_chemical_formula_structural             'U Co~1.5~ Sn~2~'
_chemical_formula_sum                    'Co1.54 Sn2 U'
_chemical_name_mineral                   ?
_chemical_compound_source                ?
_chemical_name_structure_type            CaBe~2~Ge~2~,tP10,129
_chemical_formula_weight                 563.8

# Bibliographic data

_publ_section_title                      'Magnetic structure of UCo~1.5~Sn~2~'
_journal_coden_ASTM                      SSCOA4
_journal_name_full                       'Solid State Commun.'
_journal_year                            1993
_journal_volume                          85
_journal_page_first                      485
_journal_page_last                       489
_journal_language                        English
loop_
 _publ_author_name
 _publ_author_address
'Thuery P.'
;
National Center for Scientific Research (CNRS)
Gif-sur-Yvette
France
;
'Zolnierek Z.'
;
Polish Academy of Sciences (PAN)
Trzebiatowski W. Institute of Low Temperature and Structure Research
Wroclaw
Poland
;

# Standardized crystallographic data

_cell_length_a                           4.378
_cell_length_b                           4.378
_cell_length_c                           9.054
_cell_angle_alpha                        90
_cell_angle_beta                         90
_cell_angle_gamma                        90
_cell_volume                             173.5
_cell_formula_units_Z                    2
_space_group_IT_number                   129
_space_group_name_H-M_alt                'P 4/n m m (origin choice 2)'
loop_
 _space_group_symop_id
 _space_group_symop_operation_xyz
 1 'x, y, z'
 2 '1/2-x, 1/2-y, z'
 3 '1/2-x, y, z'
 4 '-x, -y, -z'
 5 '-x, 1/2+y, -z'
 6 '1/2-y, 1/2-x, z'
 7 '1/2-y, x, z'
 8 '-y, -x, -z'
 9 '-y, 1/2+x, -z'
 10 '1/2+x, -y, -z'
 11 '1/2+x, 1/2+y, -z'
 12 'x, 1/2-y, z'
 13 '1/2+y, -x, -z'
 14 '1/2+y, 1/2+x, -z'
 15 'y, 1/2-x, z'
 16 'y, x, z'
loop_
 _atom_type_symbol
 Co
 Sn
 U
loop_
 _atom_site_label
 _atom_site_type_symbol
 _atom_site_symmetry_multiplicity
 _atom_site_Wyckoff_symbol
 _atom_site_fract_x
 _atom_site_fract_y
 _atom_site_fract_z
 _atom_site_occupancy
 Co2 Co 2 c 0.25 0.25 0.06 0.54
 Sn2 Sn 2 c 0.25 0.25 0.34 1
 U U 2 c 0.25 0.25 0.71 1
 Co1 Co 2 b 0.75 0.25 0.5 1
 Sn1 Sn 2 a 0.75 0.25 0 1


_exptl_crystal_colour                    ?
_exptl_crystal_density_meas              ?
_exptl_crystal_density_diffrn            10.79
_cell_measurement_temperature            160
_cell_measurement_radiation              X-rays
_cell_measurement_reflns_used            ?
_diffrn_ambient_temperature              160
_diffrn_measurement_device               diffractometer
_diffrn_measurement_device_type
'France, Grenoble, Institut Laue-Langevin ILL, D1A'                           
_diffrn_radiation_type                   neutrons
_diffrn_radiation_wavelength             2.426
_diffrn_reflns_number                    ?
_exptl_absorpt_coefficient_mu            ?
_exptl_absorpt_correction_type           ?
_computing_structure_solution            'starting values from the literature'
_refine_ls_number_parameters             ?
_refine_ls_number_reflns                 ?
_refine_ls_R_factor_gt                   ?
_refine_ls_wR_factor_gt                  ?
_pd_proc_ls_proof_R_factor               ?
_pd_proc_ls_proof_wR_factor              ?
_refine_ls_R_I_factor                    0.078

# End of data set 379946

