##############################################################################
#                                                                            #
# Ni-Sn-U          # UNi2Sn lt                                     #  380004 #
#                                                                            #
##############################################################################
#                                                                            #
#                           Pearson's Crystal Data                           #
#      Crystal Structure Database for Inorganic Compounds (on DVD)           #
#                              Release 2023/24                               #
#                  Editors: Pierre Villars and Karin Cenzual                 #
#                                                                            #
#   Copyright (c) ASM International & Material Phases Data System (MPDS),    #
# Switzerland & National Institute for Materials Science (NIMS), Japan, 2023 #
#                   All rights reserved. Version 2023.07                     #
#                                                                            #
#   This copy of Pearson's Crystal Data is licensed to:                      #
#   Hunter College - City University of New York                             #
#                                                                            #
##############################################################################

data_380004
_audit_creation_date                     2024-02-25
_audit_creation_method
;
Pearson's Crystal Data browser
;
#_database_code_PCD                      380004
_database_code_PDF                       04-008-9759

# Entry summary

_chemical_formula_structural             'U Ni~2~ Sn'
_chemical_formula_sum                    'Ni1.82 Sn U'
_chemical_name_mineral                   ?
_chemical_compound_source                ?
_chemical_name_structure_type            UPd~2~Sn,oP16,62
_chemical_formula_weight                 474.1

# Bibliographic data

_publ_section_title
'Low-temperature structure of UNi~2~Sn'                                       
_journal_coden_ASTM                      SSCOA4
_journal_name_full                       'Solid State Commun.'
_journal_year                            1993
_journal_volume                          88
_journal_page_first                      327
_journal_page_last                       330
_journal_language                        English
loop_
 _publ_author_name
 _publ_author_address
'Drost A.'
;
Netherlands Energy Research Center
Petten
Netherlands
;
'Haije W.G.'
;
Netherlands Energy Research Center
Petten
Netherlands
;
'Frikkee E.'
;
Netherlands Energy Research Center
Petten
Netherlands
;
'Endstra T.'
;
Leiden University
Kamerlingh Onnes Laboratory
Leiden
Netherlands
;
'Nieuwenhuys G.J.'
;
Leiden University
Kamerlingh Onnes Laboratory
Leiden
Netherlands
;
'Buschow K.H.J.'
;
Philips Research Laboratories
Eindhoven
Netherlands
;

# Standardized crystallographic data

_cell_length_a                           9.6208
_cell_length_b                           4.3055
_cell_length_c                           6.6589
_cell_angle_alpha                        90
_cell_angle_beta                         90
_cell_angle_gamma                        90
_cell_volume                             275.8
_cell_formula_units_Z                    4
_space_group_IT_number                   62
_space_group_name_H-M_alt                'P n m a'
loop_
 _space_group_symop_id
 _space_group_symop_operation_xyz
 1 'x, y, z'
 2 '1/2-x, -y, 1/2+z'
 3 '1/2-x, 1/2+y, 1/2+z'
 4 '-x, -y, -z'
 5 '-x, 1/2+y, -z'
 6 '1/2+x, 1/2-y, 1/2-z'
 7 '1/2+x, y, 1/2-z'
 8 'x, 1/2-y, z'
loop_
 _atom_type_symbol
 U
 Sn
 Ni
loop_
 _atom_site_label
 _atom_site_type_symbol
 _atom_site_symmetry_multiplicity
 _atom_site_Wyckoff_symbol
 _atom_site_fract_x
 _atom_site_fract_y
 _atom_site_fract_z
 _atom_site_occupancy
 U U 4 c 0.104 0.25 0.3144 1
 Sn Sn 4 c 0.1275 0.25 0.8007 1
 Ni2 Ni 4 c 0.3284 0.25 0.0756 0.93
 Ni1 Ni 4 c 0.3583 0.25 0.5388 0.89


_exptl_crystal_colour                    ?
_exptl_crystal_density_meas              ?
_exptl_crystal_density_diffrn            11.42
_cell_measurement_temperature            80
_cell_measurement_radiation              neutrons
_cell_measurement_wavelength             2.57168
_pd_proc_wavelength                      2.57168
_cell_measurement_reflns_used            ?
_diffrn_ambient_temperature              80
_diffrn_measurement_device               'automatic diffractometer'
_diffrn_measurement_device_type
'Netherlands, Petten, Energy Research Centre, HFR reactor'                    
_diffrn_radiation_type                   neutrons
_diffrn_radiation_wavelength             2.57168
_diffrn_reflns_number                    ?
_exptl_absorpt_coefficient_mu            ?
_exptl_absorpt_correction_type           ?
_computing_structure_solution            'starting values from the literature'
_refine_ls_number_parameters             ?
_refine_ls_number_reflns                 ?
_refine_ls_R_factor_gt                   ?
_refine_ls_wR_factor_gt                  ?
_pd_proc_ls_proof_R_factor               ?
_pd_proc_ls_proof_wR_factor              ?
_refine_ls_R_I_factor                    0.0405

# End of data set 380004

