##############################################################################
#                                                                            #
# Pd-Sn-Tb         # TbPdSn                                        #  382473 #
#                                                                            #
##############################################################################
#                                                                            #
#                           Pearson's Crystal Data                           #
#      Crystal Structure Database for Inorganic Compounds (on DVD)           #
#                              Release 2023/24                               #
#                  Editors: Pierre Villars and Karin Cenzual                 #
#                                                                            #
#   Copyright (c) ASM International & Material Phases Data System (MPDS),    #
# Switzerland & National Institute for Materials Science (NIMS), Japan, 2023 #
#                   All rights reserved. Version 2023.07                     #
#                                                                            #
#   This copy of Pearson's Crystal Data is licensed to:                      #
#   Hunter College - City University of New York                             #
#                                                                            #
##############################################################################

data_382473
_audit_creation_date                     2024-02-25
_audit_creation_method
;
Pearson's Crystal Data browser
;
#_database_code_PCD                      382473
_database_code_PDF                       04-002-8537

# Entry summary

_chemical_formula_structural             'Tb Pd Sn'
_chemical_formula_sum                    'Pd Sn Tb'
_chemical_name_mineral                   ?
_chemical_compound_source                ?
_chemical_name_structure_type            TiNiSi,oP12,62
_chemical_formula_weight                 384.0

# Bibliographic data

_publ_section_title
'Structure magnetique de TbPdSn a T= 2 K'                                     
_journal_coden_ASTM                      SSCOA4
_journal_name_full                       'Solid State Commun.'
_journal_year                            1994
_journal_volume                          91
_journal_page_first                      295
_journal_page_last                       299
_journal_language                        French
loop_
 _publ_author_name
 _publ_author_address
'Kotsanidis P.A.'
;
Thrace Democritus University
Department of Physics
Xanthi
Greece
;
'Yakinthos J.K.'
;
Thrace Democritus University
Department of Physics
Xanthi
Greece
;
'Roudaut E.'
;
Atomic Energy Commission (CEA)
Grenoble
France
;

# Standardized crystallographic data

_cell_length_a                           7.182
_cell_length_b                           4.598
_cell_length_c                           7.916
_cell_angle_alpha                        90
_cell_angle_beta                         90
_cell_angle_gamma                        90
_cell_volume                             261.4
_cell_formula_units_Z                    4
_space_group_IT_number                   62
_space_group_name_H-M_alt                'P n m a'
loop_
 _space_group_symop_id
 _space_group_symop_operation_xyz
 1 'x, y, z'
 2 '1/2-x, -y, 1/2+z'
 3 '1/2-x, 1/2+y, 1/2+z'
 4 '-x, -y, -z'
 5 '-x, 1/2+y, -z'
 6 '1/2+x, 1/2-y, 1/2-z'
 7 '1/2+x, y, 1/2-z'
 8 'x, 1/2-y, z'
loop_
 _atom_type_symbol
 Tb
 Sn
 Pd
loop_
 _atom_site_label
 _atom_site_type_symbol
 _atom_site_symmetry_multiplicity
 _atom_site_Wyckoff_symbol
 _atom_site_fract_x
 _atom_site_fract_y
 _atom_site_fract_z
 _atom_site_occupancy
 Tb Tb 4 c 0.005 0.25 0.708 1
 Sn Sn 4 c 0.1852 0.25 0.0703 1
 Pd Pd 4 c 0.2994 0.25 0.4214 1


_exptl_crystal_colour                    ?
_exptl_crystal_density_meas              ?
_exptl_crystal_density_diffrn            9.76
_cell_measurement_temperature            50
_cell_measurement_radiation              neutrons
_cell_measurement_wavelength             2.472
_pd_proc_wavelength                      2.472
_cell_measurement_reflns_used            ?
_diffrn_ambient_temperature              50
_diffrn_measurement_device               'automatic diffractometer'
_diffrn_measurement_device_type          ?
_diffrn_radiation_type                   neutrons
_diffrn_radiation_wavelength             2.472
_diffrn_reflns_number                    ?
_exptl_absorpt_coefficient_mu            ?
_exptl_absorpt_correction_type           ?
_computing_structure_solution            'starting values from the literature'
_refine_ls_number_parameters             ?
_refine_ls_number_reflns                 ?
_refine_ls_R_factor_gt                   ?
_refine_ls_wR_factor_gt                  0.0360
_pd_proc_ls_proof_R_factor               ?
_pd_proc_ls_proof_wR_factor              ?
_refine_ls_R_I_factor                    ?

# Published diffraction lines

loop_
 _refln_index_h
 _refln_index_k
 _refln_index_l
 _refln_d_spacing
 _refln_intensity_meas
 1 0 1 5.314 1.70
 2 0 0 3.588 1.20
 2 1 0 2.835 1.70
 1 1 2 2.76 62.00
 2 0 2 2.659 242.50
 1 0 3 2.472 29.94
 0 2 0 2.288 403.90

# End of data set 382473

