##############################################################################
#                                                                            #
# Pt-Sn-U          # UPt2Sn                                        #  382511 #
#                                                                            #
##############################################################################
#                                                                            #
#                           Pearson's Crystal Data                           #
#      Crystal Structure Database for Inorganic Compounds (on DVD)           #
#                              Release 2023/24                               #
#                  Editors: Pierre Villars and Karin Cenzual                 #
#                                                                            #
#   Copyright (c) ASM International & Material Phases Data System (MPDS),    #
# Switzerland & National Institute for Materials Science (NIMS), Japan, 2023 #
#                   All rights reserved. Version 2023.07                     #
#                                                                            #
#   This copy of Pearson's Crystal Data is licensed to:                      #
#   Hunter College - City University of New York                             #
#                                                                            #
##############################################################################

data_382511
_audit_creation_date                     2024-02-25
_audit_creation_method
;
Pearson's Crystal Data browser
;
#_database_code_PCD                      382511
_database_code_PDF                       04-008-9847

# Entry summary

_chemical_formula_structural             'U Pt~2~ Sn'
_chemical_formula_sum                    'Pt2 Sn U'
_chemical_name_mineral                   ?
_chemical_compound_source                ?
_chemical_name_structure_type            LiCu~2~Sn,hP8,194
_chemical_formula_weight                 746.9

# Bibliographic data

_publ_section_title
;
Structural, Magnetic, Transport and Thermal Properties of UCu~2~Sn, UPt~2~Sn and UAu~2~Al
;
_journal_coden_ASTM                      JUPSAU
_journal_name_full                       'J. Phys. Soc. Jpn.'
_journal_year                            1992
_journal_volume                          61
_journal_page_first                      778
_journal_page_last                       781
_journal_language                        English
loop_
 _publ_author_name
 _publ_author_address
'Takabatake T.'
;
Hiroshima University
Faculty of Integrated Arts and Sciences
Hiroshima / Hiroshima
Japan
;
'Iwasaki H.'
;
Hiroshima University
Faculty of Integrated Arts and Sciences
Hiroshima / Hiroshima
Japan
;
'Fujii H.'
;
Hiroshima University
Faculty of Integrated Arts and Sciences
Hiroshima / Hiroshima
Japan
;
'Ikeda S.I.'
;
Hiroshima University
Faculty of Science
Higashihiroshima / Hiroshima
Japan
;
'Nishigori S.'
;
Hiroshima University
Faculty of Science
Higashihiroshima / Hiroshima
Japan
;
'Aoki Y.'
;
Hiroshima University
Faculty of Science
Higashihiroshima / Hiroshima
Japan
;
'Suzuki T.'
;
Hiroshima University
Faculty of Science
Higashihiroshima / Hiroshima
Japan
;
'Fujita T.'
;
Hiroshima University
Faculty of Science
Higashihiroshima / Hiroshima
Japan
;

# Standardized crystallographic data

_cell_length_a                           4.55
_cell_length_b                           4.55
_cell_length_c                           9.021
_cell_angle_alpha                        90
_cell_angle_beta                         90
_cell_angle_gamma                        120
_cell_volume                             161.7
_cell_formula_units_Z                    2
_space_group_IT_number                   194
_space_group_name_H-M_alt                'P 63/m m c'
loop_
 _space_group_symop_id
 _space_group_symop_operation_xyz
 1 'x, y, z'
 2 '-x+y, -x, 1/2-z'
 3 '-x+y, -x, z'
 4 '-x+y, y, 1/2-z'
 5 '-x+y, y, z'
 6 '-x, -x+y, -z'
 7 '-x, -x+y, 1/2+z'
 8 '-x, -y, -z'
 9 '-x, -y, 1/2+z'
 10 '-y, -x, 1/2-z'
 11 '-y, -x, z'
 12 '-y, x-y, 1/2-z'
 13 '-y, x-y, z'
 14 'x, x-y, 1/2-z'
 15 'x, x-y, z'
 16 'x, y, 1/2-z'
 17 'x-y, -y, -z'
 18 'x-y, -y, 1/2+z'
 19 'x-y, x, -z'
 20 'x-y, x, 1/2+z'
 21 'y, -x+y, -z'
 22 'y, -x+y, 1/2+z'
 23 'y, x, -z'
 24 'y, x, 1/2+z'

# Atomic positions taken from type-defining entry

loop_
 _atom_type_symbol
 Pt
 Sn
 U
loop_
 _atom_site_label
 _atom_site_type_symbol
 _atom_site_symmetry_multiplicity
 _atom_site_Wyckoff_symbol
 _atom_site_fract_x
 _atom_site_fract_y
 _atom_site_fract_z
 _atom_site_occupancy
 Pt1 Pt 4 f 0.333333 0.666667 0.583 1
 Sn1 Sn 2 c 0.333333 0.666667 0.25 1
 U1 U 2 a 0 0 0 1


_exptl_crystal_colour                    ?
_exptl_crystal_density_meas              ?
_exptl_crystal_density_diffrn            15.34
_cell_measurement_temperature            ?
_cell_measurement_radiation              X-rays
_cell_measurement_reflns_used            ?
_diffrn_ambient_temperature              ?
_diffrn_measurement_device               'automatic diffractometer'
_diffrn_measurement_device_type          ?
_diffrn_radiation_type                   ?
_diffrn_reflns_number                    ?
_exptl_absorpt_coefficient_mu            ?
_exptl_absorpt_correction_type           ?
_computing_structure_solution            ?
_refine_ls_number_parameters             ?
_refine_ls_number_reflns                 ?
_refine_ls_R_factor_gt                   ?
_refine_ls_wR_factor_gt                  ?

# End of data set 382511

