##############################################################################
#                                                                            #
# Ge-Nd-Pt         # NdPt2Ge2 mon                                  #  458899 #
#                                                                            #
##############################################################################
#                                                                            #
#                           Pearson's Crystal Data                           #
#      Crystal Structure Database for Inorganic Compounds (on DVD)           #
#                              Release 2023/24                               #
#                  Editors: Pierre Villars and Karin Cenzual                 #
#                                                                            #
#   Copyright (c) ASM International & Material Phases Data System (MPDS),    #
# Switzerland & National Institute for Materials Science (NIMS), Japan, 2023 #
#                   All rights reserved. Version 2023.07                     #
#                                                                            #
#   This copy of Pearson's Crystal Data is licensed to:                      #
#   Hunter College - City University of New York                             #
#                                                                            #
##############################################################################

data_458899
_audit_creation_date                     2024-02-25
_audit_creation_method
;
Pearson's Crystal Data browser
;
#_database_code_PCD                      458899
_database_code_PDF                       04-003-7457

# Entry summary

_chemical_formula_structural             'Nd Pt~2~ Ge~2~'
_chemical_formula_sum                    'Ge2 Nd Pt2'
_chemical_name_mineral                   ?
_chemical_compound_source                ?
_chemical_name_structure_type            LaPt~2~Ge~2~,mP10,4
_chemical_formula_weight                 679.6

# Bibliographic data

_publ_section_title
;
LaPt~2~Ge~2~, a monoclinic variant of the tetragonal CaBe~2~Ge~2~-type structure
;
_journal_coden_ASTM                      JCOMAH
_journal_name_full                       'J. Less-Common Met.'
_journal_year                            1989
_journal_volume                          146
_journal_page_first                      271
_journal_page_last                       278
_journal_language                        English
loop_
 _publ_author_name
 _publ_author_address
'Venturini G.'
;
Nancy I Henri Poincare University
Laboratoire de Chimie du Solide Mineral (LCSM)
Vandoeuvre-les-Nancy
France
;
'Malaman B.'
;
Nancy I Henri Poincare University
Laboratoire de Chimie du Solide Mineral (LCSM)
Vandoeuvre-les-Nancy
France
;
'Roques B.'
;
Nancy I Henri Poincare University
Laboratoire de Chimie du Solide Mineral (LCSM)
Vandoeuvre-les-Nancy
France
;

# Standardized crystallographic data

_cell_length_a                           4.363
_cell_length_b                           4.389
_cell_length_c                           9.771
_cell_angle_alpha                        90
_cell_angle_beta                         90.98
_cell_angle_gamma                        90
_cell_volume                             187.1
_cell_formula_units_Z                    2
_space_group_IT_number                   4
_space_group_name_H-M_alt                'P 1 21 1'
loop_
 _space_group_symop_id
 _space_group_symop_operation_xyz
 1 'x, y, z'
 2 '-x, 1/2+y, -z'

# Atomic positions taken from type-defining entry

loop_
 _atom_type_symbol
 Pt
 Nd
 Ge
loop_
 _atom_site_label
 _atom_site_type_symbol
 _atom_site_symmetry_multiplicity
 _atom_site_Wyckoff_symbol
 _atom_site_fract_x
 _atom_site_fract_y
 _atom_site_fract_z
 _atom_site_occupancy
 Pt1 Pt 2 a 0.2559 0.0483 0.379 1
 Nd1 Nd 2 a 0.2631 0.0151 0.7449 1
 Ge1 Ge 2 a 0.2647 0.0 0.1267 1
 Pt2 Pt 2 a 0.268 0.465 0.0016 1
 Ge2 Ge 2 a 0.2727 0.5687 0.5049 1


_exptl_crystal_colour                    ?
_exptl_crystal_density_meas              ?
_exptl_crystal_density_diffrn            12.06
_cell_measurement_temperature            ?
_cell_measurement_radiation              'X-rays, Cu Ka'
_cell_measurement_reflns_used            ?
_diffrn_ambient_temperature              ?
_diffrn_measurement_device               'Guinier film'
_diffrn_measurement_device_type          ?
_diffrn_radiation_type                   ?
_diffrn_reflns_number                    ?
_exptl_absorpt_coefficient_mu            ?
_exptl_absorpt_correction_type           ?
_computing_structure_solution            ?
_refine_ls_number_parameters             ?
_refine_ls_number_reflns                 ?
_refine_ls_R_factor_gt                   ?
_refine_ls_wR_factor_gt                  ?

# End of data set 458899

