##############################################################################
#                                                                            #
# Ho-Pt-Sn         # HoPtSn                                        #  458856 #
#                                                                            #
##############################################################################
#                                                                            #
#                           Pearson's Crystal Data                           #
#      Crystal Structure Database for Inorganic Compounds (on DVD)           #
#                              Release 2023/24                               #
#                  Editors: Pierre Villars and Karin Cenzual                 #
#                                                                            #
#   Copyright (c) ASM International & Material Phases Data System (MPDS),    #
# Switzerland & National Institute for Materials Science (NIMS), Japan, 2023 #
#                   All rights reserved. Version 2023.07                     #
#                                                                            #
#   This copy of Pearson's Crystal Data is licensed to:                      #
#   Hunter College - City University of New York                             #
#                                                                            #
##############################################################################

data_458856
_audit_creation_date                     2024-02-25
_audit_creation_method
;
Pearson's Crystal Data browser
;
#_database_code_PCD                      458856
_database_code_PDF                       04-003-7414

# Entry summary

_chemical_formula_structural             'Ho Pt Sn'
_chemical_formula_sum                    'Ho Pt Sn'
_chemical_name_mineral                   ?
_chemical_compound_source                ?
_chemical_name_structure_type            ZrNiAl,hP9,189
_chemical_formula_weight                 478.7

# Bibliographic data

_publ_section_title
'HoPtSn and other intermetallic compounds with the Fe~2~P-type structure'     
_journal_coden_ASTM                      JCOMAH
_journal_name_full                       'J. Less-Common Met.'
_journal_year                            1973
_journal_volume                          30
_journal_page_first                      1
_journal_page_last                       8
_journal_language                        English
loop_
 _publ_author_name
 _publ_author_address
'Dwight A.E.'
;
Northern Illinois University (NIU)
Department of Physics
DeKalb
U.S.A. Illinois
;
'Harper W.C.'
;
Northern Illinois University (NIU)
Department of Physics
DeKalb
U.S.A. Illinois
;
'Kimball C.W.'
;
Northern Illinois University (NIU)
Department of Physics
DeKalb
U.S.A. Illinois
;

# Standardized crystallographic data

_cell_length_a                           7.418
_cell_length_b                           7.418
_cell_length_c                           3.966
_cell_angle_alpha                        90
_cell_angle_beta                         90
_cell_angle_gamma                        120
_cell_volume                             189
_cell_formula_units_Z                    3
_space_group_IT_number                   189
_space_group_name_H-M_alt                'P -6 2 m'
loop_
 _space_group_symop_id
 _space_group_symop_operation_xyz
 1 'x, y, z'
 2 '-x+y, -x, -z'
 3 '-x+y, -x, z'
 4 '-x, -x+y, -z'
 5 '-x, -x+y, z'
 6 '-y, x-y, -z'
 7 '-y, x-y, z'
 8 'x, y, -z'
 9 'x-y, -y, -z'
 10 'x-y, -y, z'
 11 'y, x, -z'
 12 'y, x, z'
loop_
 _atom_type_symbol
 Sn
 Ho
 Pt
loop_
 _atom_site_label
 _atom_site_type_symbol
 _atom_site_symmetry_multiplicity
 _atom_site_Wyckoff_symbol
 _atom_site_fract_x
 _atom_site_fract_y
 _atom_site_fract_z
 _atom_site_occupancy
 Sn Sn 3 g 0.265 0 0.5 1
 Ho Ho 3 f 0.605 0 0 1
 Pt2 Pt 2 d 0.333333 0.666667 0.5 1
 Pt1 Pt 1 a 0 0 0 1


_exptl_crystal_colour                    ?
_exptl_crystal_density_meas              ?
_exptl_crystal_density_diffrn            12.62
_cell_measurement_temperature            ?
_cell_measurement_radiation              'X-rays, Co Ka, Cu Ka'
_cell_measurement_reflns_used            ?
_diffrn_ambient_temperature              ?
_diffrn_measurement_device               'Debye-Scherrer film'
_diffrn_measurement_device_type          ?
_diffrn_radiation_type                   'X-rays, Cu Ka'
_diffrn_reflns_number                    ?
_exptl_absorpt_coefficient_mu            ?
_exptl_absorpt_correction_type           ?
_computing_structure_solution            'starting values from the literature'
_refine_ls_number_parameters             ?
_refine_ls_number_reflns                 ?
_refine_ls_R_factor_gt                   ?
_refine_ls_wR_factor_gt                  ?
_pd_proc_ls_proof_R_factor               ?
_pd_proc_ls_proof_wR_factor              ?
_refine_ls_R_I_factor                    ?

# Published diffraction lines

loop_
 _refln_index_h
 _refln_index_k
 _refln_index_l
 _refln_d_spacing
 _refln_intensity_meas
 1 1 0 3.7 3
 1 0 1 3.37 3
 2 0 0 3.21 2
 1 1 1 2.7 7
 2 0 1 2.49 8
 2 1 0 2.425 6
 3 0 0 2.14 7
 2 1 1 2.07 6
 0 0 2 1.98 6
 3 0 1 1.88 2
 2 2 0 1.85 5
 3 1 0 1.78 5
 1 1 2 1.75 2
 2 2 1 1.68 3
 3 1 1 1.625 5
 4 0 0 1.606 3
 2 1 2 1.536 5
 3 2 0 1.475 3
 3 0 2 1.455 6
 4 1 0 1.402 5
 3 2 1 1.382 8
 2 2 2 1.355 5
 3 1 2 1.326 5
 4 1 1 1.321 5
 5 0 0 1.285 3
 4 0 2 1.248 3
 1 1 3 1.246 5
 3 3 0 1.236 5
 2 0 3 1.223 7
 4 2 0 1.215 5
 3 2 2 1.183 3
 3 3 1 1.18 2
 2 1 3 1.162 6
 5 1 0 1.155 3
 4 1 2 1.145 6
 5 1 1 1.109 6
 5 0 2 1.079 5
 6 0 0 1.071 2
 3 1 3 1.062 3
 3 3 2 1.05 5
 4 2 2 1.036 5
 5 2 0 1.029 6
 4 3 1 1.02 3
 5 1 2 0.997 3
 5 2 1 0.995 3
 0 0 4 0.991 3
 3 2 3 0.984 7
 6 1 0 0.979 2
 4 1 3 0.962 5
 1 1 4 0.957 2
 6 1 1 0.951 7
 6 0 2 0.942 3
 4 3 2 0.932 3
 4 4 0 0.927 5
 5 0 3 0.922 5
 2 1 4 0.918 6
 5 2 2 0.913 7
 3 3 3 0.903 7
 3 0 4 0.9 6

# End of data set 458856

