##############################################################################
#                                                                            #
# Ce-Ni-Sb         # CeNi2Sb2                                      #  458979 #
#                                                                            #
##############################################################################
#                                                                            #
#                           Pearson's Crystal Data                           #
#      Crystal Structure Database for Inorganic Compounds (on DVD)           #
#                              Release 2023/24                               #
#                  Editors: Pierre Villars and Karin Cenzual                 #
#                                                                            #
#   Copyright (c) ASM International & Material Phases Data System (MPDS),    #
# Switzerland & National Institute for Materials Science (NIMS), Japan, 2023 #
#                   All rights reserved. Version 2023.07                     #
#                                                                            #
#   This copy of Pearson's Crystal Data is licensed to:                      #
#   Hunter College - City University of New York                             #
#                                                                            #
##############################################################################

data_458979
_audit_creation_date                     2024-02-24
_audit_creation_method
;
Pearson's Crystal Data browser
;
#_database_code_PCD                      458979
_database_code_PDF                       04-003-7537

# Entry summary

_chemical_formula_structural             'Ce Ni~1.5~ Sb~2~'
_chemical_formula_sum                    'Ce Ni1.5 Sb2'
_chemical_name_mineral                   ?
_chemical_compound_source                ?
_chemical_name_structure_type            CaBe~2~Ge~2~,tP10,129
_chemical_formula_weight                 471.7

# Bibliographic data

_publ_section_title
;
Ternary pnictides MNi~2-x~Pn~2~ (M= Sr and rare earth metals, Pn= Sb, Bi) with defect CaBe~2~Ge~2~ and defect ThCr~2~Si~2~ structures
;
_journal_coden_ASTM                      JCOMAH
_journal_name_full                       'J. Less-Common Met.'
_journal_year                            1988
_journal_volume                          138
_journal_page_first                      313
_journal_page_last                       322
_journal_language                        English
loop_
 _publ_author_name
 _publ_author_address
'Hofmann W.K.'
;
Hahn-Meitner Institute
Berlin
Germany
;
'Jeitschko W.'
;
Munster University (WWU)
Institut fur Anorganische Chemie
Munster
Germany
;

# Standardized crystallographic data

_cell_length_a                           4.413
_cell_length_b                           4.413
_cell_length_c                           9.846
_cell_angle_alpha                        90
_cell_angle_beta                         90
_cell_angle_gamma                        90
_cell_volume                             191.7
_cell_formula_units_Z                    2
_space_group_IT_number                   129
_space_group_name_H-M_alt                'P 4/n m m (origin choice 2)'
loop_
 _space_group_symop_id
 _space_group_symop_operation_xyz
 1 'x, y, z'
 2 '1/2-x, 1/2-y, z'
 3 '1/2-x, y, z'
 4 '-x, -y, -z'
 5 '-x, 1/2+y, -z'
 6 '1/2-y, 1/2-x, z'
 7 '1/2-y, x, z'
 8 '-y, -x, -z'
 9 '-y, 1/2+x, -z'
 10 '1/2+x, -y, -z'
 11 '1/2+x, 1/2+y, -z'
 12 'x, 1/2-y, z'
 13 '1/2+y, -x, -z'
 14 '1/2+y, 1/2+x, -z'
 15 'y, 1/2-x, z'
 16 'y, x, z'

# Atomic positions taken from type-defining entry

loop_
 _atom_type_symbol
 Ni
 Sb
 Ce
loop_
 _atom_site_label
 _atom_site_type_symbol
 _atom_site_symmetry_multiplicity
 _atom_site_Wyckoff_symbol
 _atom_site_fract_x
 _atom_site_fract_y
 _atom_site_fract_z
 _atom_site_occupancy
 Ni1 Ni 2 c 0.25 0.25 0.108 0.500
 Sb1 Sb 2 c 0.25 0.25 0.368 1
 Ce1 Ce 2 c 0.25 0.25 0.749 1
 Ni2 Ni 2 b 0.75 0.25 0.5 1
 Sb2 Sb 2 a 0.75 0.25 0 1


_exptl_crystal_colour                    ?
_exptl_crystal_density_meas              ?
_exptl_crystal_density_diffrn            8.17
_cell_measurement_temperature            ?
_cell_measurement_radiation              'X-rays, Cu Ka1'
_cell_measurement_reflns_used            ?
_diffrn_ambient_temperature              ?
_diffrn_measurement_device               'Guinier-de Wolff film'
_diffrn_measurement_device_type          ?
_diffrn_radiation_type                   ?
_diffrn_reflns_number                    ?
_exptl_absorpt_coefficient_mu            ?
_exptl_absorpt_correction_type           ?
_computing_structure_solution            ?
_refine_ls_number_parameters             ?
_refine_ls_number_reflns                 ?
_refine_ls_R_factor_gt                   ?
_refine_ls_wR_factor_gt                  ?

# Published diffraction lines

loop_
 _refln_index_h
 _refln_index_k
 _refln_index_l
 _refln_d_spacing
 _refln_intensity_meas
 0 0 2 4.927 2
 1 0 2 3.277 7
 1 1 0 3.117 7
 1 1 2 2.635 8
 0 0 4 2.46 3
 2 0 0 2.206 8
 1 1 4 1.932 7
 2 0 3 1.831 7
 1 0 5 1.798 7
 2 1 3 1.691 8
 2 0 4 1.644 3
 2 2 0 1.561 7
 1 0 6 1.538 3
 1 1 6 1.452 7
 3 1 0 1.395 7

# End of data set 458979

