##############################################################################
#                                                                            #
# Eu-In-Pd         # EuPdIn orth                                   #  459746 #
#                                                                            #
##############################################################################
#                                                                            #
#                           Pearson's Crystal Data                           #
#      Crystal Structure Database for Inorganic Compounds (on DVD)           #
#                              Release 2023/24                               #
#                  Editors: Pierre Villars and Karin Cenzual                 #
#                                                                            #
#   Copyright (c) ASM International & Material Phases Data System (MPDS),    #
# Switzerland & National Institute for Materials Science (NIMS), Japan, 2023 #
#                   All rights reserved. Version 2023.07                     #
#                                                                            #
#   This copy of Pearson's Crystal Data is licensed to:                      #
#   Hunter College - City University of New York                             #
#                                                                            #
##############################################################################

data_459746
_audit_creation_date                     2024-02-24
_audit_creation_method
;
Pearson's Crystal Data browser
;
#_database_code_PCD                      459746
_database_code_PDF                       04-003-8252

# Entry summary

_chemical_formula_structural             'Eu Pd In'
_chemical_formula_sum                    'Eu In Pd'
_chemical_name_mineral                   ?
_chemical_compound_source                ?
_chemical_name_structure_type            TiNiSi,oP12,62
_chemical_formula_weight                 373.2
_chemical_melting_point                  1133

# Bibliographic data

_publ_section_title
;
Thermodynamic and physical properties of mixed-valence YbPdIn and of MPdIn intermetallic compounds (M= Ca, St, Er, Eu)
;
_journal_coden_ASTM                      JCOMAH
_journal_name_full                       'J. Less-Common Met.'
_journal_year                            1985
_journal_volume                          107
_journal_page_first                      179
_journal_page_last                       187
_journal_language                        English
loop_
 _publ_author_name
 _publ_author_address
'Cirafici S.'
;
Genoa University (UniGe)
Istituto di Chimica Fisica
Genoa
Italy
;
'Palenzona A.'
;
Genoa University (UniGe)
Istituto di Chimica Fisica
Genoa
Italy
;
'Canepa F.'
;
Genoa University (UniGe)
Istituto di Chimica Fisica
Genoa
Italy
;

# Standardized crystallographic data

_cell_length_a                           7.474
_cell_length_b                           4.464
_cell_length_c                           8.529
_cell_angle_alpha                        90
_cell_angle_beta                         90
_cell_angle_gamma                        90
_cell_volume                             284.6
_cell_formula_units_Z                    4
_space_group_IT_number                   62
_space_group_name_H-M_alt                'P n m a'
loop_
 _space_group_symop_id
 _space_group_symop_operation_xyz
 1 'x, y, z'
 2 '1/2-x, -y, 1/2+z'
 3 '1/2-x, 1/2+y, 1/2+z'
 4 '-x, -y, -z'
 5 '-x, 1/2+y, -z'
 6 '1/2+x, 1/2-y, 1/2-z'
 7 '1/2+x, y, 1/2-z'
 8 'x, 1/2-y, z'
loop_
 _atom_type_symbol
 Eu
 Pd
 In
loop_
 _atom_site_label
 _atom_site_type_symbol
 _atom_site_symmetry_multiplicity
 _atom_site_Wyckoff_symbol
 _atom_site_fract_x
 _atom_site_fract_y
 _atom_site_fract_z
 _atom_site_occupancy
 Eu Eu 4 c 0.0348 0.25 0.6771 1
 Pd Pd 4 c 0.1417 0.25 0.0623 1
 In In 4 c 0.2717 0.25 0.3741 1


_exptl_crystal_colour                    ?
_exptl_crystal_density_meas              ?
_exptl_crystal_density_diffrn            8.71
_cell_measurement_temperature            ?
_cell_measurement_radiation              'X-rays, Cu Ka, Fe Ka, Mo Ka'
_cell_measurement_reflns_used            25
_diffrn_ambient_temperature              ?
_diffrn_measurement_device               'automatic diffractometer'
_diffrn_measurement_device_type          'Enraf-Nonius CAD4'
_diffrn_radiation_type                   'X-rays, Mo Ka'
_diffrn_radiation_wavelength             0.71069
_diffrn_reflns_number                    ?
_exptl_absorpt_coefficient_mu            71.2
_exptl_absorpt_correction_type           spherical
_computing_structure_solution            'starting values from the literature'
_refine_ls_number_parameters             ?
_refine_ls_number_reflns                 329
_refine_ls_R_factor_gt                   0.054
_refine_ls_wR_factor_gt                  ?

# End of data set 459746

