##############################################################################
#                                                                            #
# Co-La-Sn         # LaCo0.52Sn2                                   #  460887 #
#                                                                            #
##############################################################################
#                                                                            #
#                           Pearson's Crystal Data                           #
#      Crystal Structure Database for Inorganic Compounds (on DVD)           #
#                              Release 2023/24                               #
#                  Editors: Pierre Villars and Karin Cenzual                 #
#                                                                            #
#   Copyright (c) ASM International & Material Phases Data System (MPDS),    #
# Switzerland & National Institute for Materials Science (NIMS), Japan, 2023 #
#                   All rights reserved. Version 2023.07                     #
#                                                                            #
#   This copy of Pearson's Crystal Data is licensed to:                      #
#   Hunter College - City University of New York                             #
#                                                                            #
##############################################################################

data_460887
_audit_creation_date                     2024-02-24
_audit_creation_method
;
Pearson's Crystal Data browser
;
#_database_code_PCD                      460887
_database_code_PDF                       04-003-9260

# Entry summary

_chemical_formula_structural             'La Co~0.52~ Sn~2~'
_chemical_formula_sum                    'Co0.52 La Sn2'
_chemical_name_mineral                   ?
_chemical_compound_source                ?
_chemical_name_structure_type            CeNiSi~2~,oS16,63
_chemical_formula_weight                 406.9

# Bibliographic data

_publ_section_title
;
Beitrage zu den Stabilitatskriterien der BaCuSn~2~-Struktur: Die Verbindungen LaCu~0.56~Sn~2~, LaNi~0.74~Sn~2~, LaCo~0.52~Sn~2~, LaFe~0.34~Sn~2~ und BaCuSn~2~
;
_journal_coden_ASTM                      JCOMAH
_journal_name_full                       'J. Less-Common Met.'
_journal_year                            1982
_journal_volume                          83
_journal_page_first                      269
_journal_page_last                       278
_journal_language                        German
loop_
 _publ_author_name
 _publ_author_address
'Dorrscheidt W.'
;
Darmstadt Technical University (TU Darmstadt)
Eduard Zintl Institut
Darmstadt
Germany
;
'Savelsberg G.'
;
Darmstadt Technical University (TU Darmstadt)
Eduard Zintl Institut
Darmstadt
Germany
;
'Stohr J.'
;
Darmstadt Technical University (TU Darmstadt)
Eduard Zintl Institut
Darmstadt
Germany
;
'Schafer H.'
;
Darmstadt Technical University (TU Darmstadt)
Eduard Zintl Institut
Darmstadt
Germany
;

# Standardized crystallographic data

_cell_length_a                           4.585
_cell_length_b                           17.414
_cell_length_c                           4.52
_cell_angle_alpha                        90
_cell_angle_beta                         90
_cell_angle_gamma                        90
_cell_volume                             360.9
_cell_formula_units_Z                    4
_space_group_IT_number                   63
_space_group_name_H-M_alt                'C m c m'
loop_
 _space_group_symop_id
 _space_group_symop_operation_xyz
 1 'x, y, z'
 2 '-x, -y, -z'
 3 '-x, -y, 1/2+z'
 4 '-x, y, 1/2-z'
 5 '-x, y, z'
 6 'x, -y, -z'
 7 'x, -y, 1/2+z'
 8 'x, y, 1/2-z'
 9 '1/2+x, 1/2+y, z'
 10 '1/2-x, 1/2-y, -z'
 11 '1/2-x, 1/2-y, 1/2+z'
 12 '1/2-x, 1/2+y, 1/2-z'
 13 '1/2-x, 1/2+y, z'
 14 '1/2+x, 1/2-y, -z'
 15 '1/2+x, 1/2-y, 1/2+z'
 16 '1/2+x, 1/2+y, 1/2-z'
loop_
 _atom_type_symbol
 Sn
 Co
 La
loop_
 _atom_site_label
 _atom_site_type_symbol
 _atom_site_symmetry_multiplicity
 _atom_site_Wyckoff_symbol
 _atom_site_fract_x
 _atom_site_fract_y
 _atom_site_fract_z
 _atom_site_occupancy
 Sn1 Sn 4 c 0 0.0531 0.25 1
 Co Co 4 c 0 0.1893 0.25 0.52
 La La 4 c 0 0.3952 0.25 1
 Sn2 Sn 4 c 0 0.7508 0.25 1


_exptl_crystal_colour                    gray
_exptl_crystal_density_meas              7.509
_exptl_crystal_density_diffrn            7.49
_cell_measurement_temperature            ?
_cell_measurement_radiation              'X-rays, Mo Ka'
_cell_measurement_reflns_used            25
_diffrn_ambient_temperature              ?
_diffrn_measurement_device               'automatic diffractometer'
_diffrn_measurement_device_type          'Philips PW1100'
_diffrn_radiation_type                   'X-rays, Mo Ka'
_diffrn_reflns_number                    ?
_diffrn_reflns_theta_min                 3
_diffrn_reflns_theta_max                 30
_exptl_absorpt_coefficient_mu            27.81
_exptl_absorpt_correction_type           ?
_computing_structure_solution            'starting values from the literature'
_refine_ls_number_parameters             ?
_refine_ls_number_reflns                 ?
_refine_ls_R_factor_gt                   0.054
_refine_ls_wR_factor_gt                  ?

# End of data set 460887

