##############################################################################
#                                                                            #
# Ga-Ni-U          # UNiGa                                         #  460990 #
#                                                                            #
##############################################################################
#                                                                            #
#                           Pearson's Crystal Data                           #
#      Crystal Structure Database for Inorganic Compounds (on DVD)           #
#                              Release 2023/24                               #
#                  Editors: Pierre Villars and Karin Cenzual                 #
#                                                                            #
#   Copyright (c) ASM International & Material Phases Data System (MPDS),    #
# Switzerland & National Institute for Materials Science (NIMS), Japan, 2023 #
#                   All rights reserved. Version 2023.07                     #
#                                                                            #
#   This copy of Pearson's Crystal Data is licensed to:                      #
#   Hunter College - City University of New York                             #
#                                                                            #
##############################################################################

data_460990
_audit_creation_date                     2024-02-24
_audit_creation_method
;
Pearson's Crystal Data browser
;
#_database_code_PCD                      460990
_database_code_PDF                       04-003-9348

# Entry summary

_chemical_formula_structural             'U Ni Ga'
_chemical_formula_sum                    'Ga Ni U'
_chemical_name_mineral                   ?
_chemical_compound_source                ?
_chemical_name_structure_type            ZrNiAl,hP9,189
_chemical_formula_weight                 366.4

# Bibliographic data

_publ_section_title                      'On the magnetic structure of UNiGa'
_journal_coden_ASTM                      JMMMDC
_journal_name_full                       'J. Magn. Magn. Mater.'
_journal_year                            1992
_journal_volume                          104/107
_journal_page_first                      21
_journal_page_last                       22
_journal_language                        English
loop_
 _publ_author_name
 _publ_author_address
'Maletta H.'
;
Julich Research Center (FZJ)
Julich
Germany
;
'Andreev A.V.'
;
Amsterdam University
Van der Waals-Zeeman Laboratorium
Amsterdam
Netherlands
;
'Buschow K.H.J.'
;
Philips Research Laboratories
Eindhoven
Netherlands
;
'Burlet P.'
;
Atomic Energy Commission (CEA)
Grenoble
France
;
'Robinson R.A.'
;
Los Alamos National Laboratory (LANL)
Los Alamos National Laboratory (LANL)
Los Alamos
U.S.A. New Mexico
;
'Lawson A.C.'
;
Los Alamos National Laboratory (LANL)
Los Alamos National Laboratory (LANL)
Los Alamos
U.S.A. New Mexico
;
'Sechovsky V.'
;
Charles University
Department of Metal Physics
Prague
Czech Republic
;
'Havela L.'
;
Charles University
Department of Metal Physics
Prague
Czech Republic
;
'Jirman L.'
;
Charles University
Department of Metal Physics
Prague
Czech Republic
;
'Divis M.'
;
Charles University
Department of Metal Physics
Prague
Czech Republic
;
'Bruck E.'
;
Amsterdam University
Van der Waals-Zeeman Laboratorium
Amsterdam
Netherlands
;
'De Boer F.R.'
;
Amsterdam University
Van der Waals-Zeeman Laboratorium
Amsterdam
Netherlands
;

# Standardized crystallographic data

_cell_length_a                           6.7012
_cell_length_b                           6.7012
_cell_length_c                           4.0088
_cell_angle_alpha                        90
_cell_angle_beta                         90
_cell_angle_gamma                        120
_cell_volume                             155.9
_cell_formula_units_Z                    3
_space_group_IT_number                   189
_space_group_name_H-M_alt                'P -6 2 m'
loop_
 _space_group_symop_id
 _space_group_symop_operation_xyz
 1 'x, y, z'
 2 '-x+y, -x, -z'
 3 '-x+y, -x, z'
 4 '-x, -x+y, -z'
 5 '-x, -x+y, z'
 6 '-y, x-y, -z'
 7 '-y, x-y, z'
 8 'x, y, -z'
 9 'x-y, -y, -z'
 10 'x-y, -y, z'
 11 'y, x, -z'
 12 'y, x, z'
loop_
 _atom_type_symbol
 Ga
 U
 Ni
loop_
 _atom_site_label
 _atom_site_type_symbol
 _atom_site_symmetry_multiplicity
 _atom_site_Wyckoff_symbol
 _atom_site_fract_x
 _atom_site_fract_y
 _atom_site_fract_z
 _atom_site_occupancy
 Ga Ga 3 g 0.24041 0 0.5 1
 U U 3 f 0.57754 0 0 1
 Ni2 Ni 2 d 0.333333 0.666667 0.5 1
 Ni1 Ni 1 a 0 0 0 1


_exptl_crystal_colour                    ?
_exptl_crystal_density_meas              ?
_exptl_crystal_density_diffrn            11.71
_cell_measurement_temperature            60
_cell_measurement_radiation              neutrons
_cell_measurement_reflns_used            ?
_diffrn_ambient_temperature              60
_diffrn_measurement_device               'automatic diffractometer'
_diffrn_measurement_device_type
'France, Grenoble, Institut Laue-Langevin ILL, D1B'                           
_diffrn_radiation_type                   neutrons
_diffrn_reflns_number                    ?
_exptl_absorpt_coefficient_mu            ?
_exptl_absorpt_correction_type           ?
_computing_structure_solution            'starting values from the literature'
_refine_ls_number_parameters             ?
_refine_ls_number_reflns                 ?
_refine_ls_R_factor_gt                   ?
_refine_ls_wR_factor_gt                  ?
_pd_proc_ls_proof_R_factor               ?
_pd_proc_ls_proof_wR_factor              ?
_refine_ls_R_I_factor                    ?

# End of data set 460990

