##############################################################################
#                                                                            #
# Pd-Sn-Tb         # TbPdSn                                        #  461076 #
#                                                                            #
##############################################################################
#                                                                            #
#                           Pearson's Crystal Data                           #
#      Crystal Structure Database for Inorganic Compounds (on DVD)           #
#                              Release 2023/24                               #
#                  Editors: Pierre Villars and Karin Cenzual                 #
#                                                                            #
#   Copyright (c) ASM International & Material Phases Data System (MPDS),    #
# Switzerland & National Institute for Materials Science (NIMS), Japan, 2023 #
#                   All rights reserved. Version 2023.07                     #
#                                                                            #
#   This copy of Pearson's Crystal Data is licensed to:                      #
#   Hunter College - City University of New York                             #
#                                                                            #
##############################################################################

data_461076
_audit_creation_date                     2024-02-25
_audit_creation_method
;
Pearson's Crystal Data browser
;
#_database_code_PCD                      461076
_database_code_PDF                       04-003-9425

# Entry summary

_chemical_formula_structural             'Tb Pd Sn'
_chemical_formula_sum                    'Pd Sn Tb'
_chemical_name_mineral                   ?
_chemical_compound_source                ?
_chemical_name_structure_type            TiNiSi,oP12,62
_chemical_formula_weight                 384.0

# Bibliographic data

_publ_section_title
'Magnetic structure and phase transition in TbPdSn compound'                  
_journal_coden_ASTM                      JMMMDC
_journal_name_full                       'J. Magn. Magn. Mater.'
_journal_year                            1993
_journal_volume                          125
_journal_page_first                      303
_journal_page_last                       309
_journal_language                        English
loop_
 _publ_author_name
 _publ_author_address
'Andre G.'
;
National Center for Scientific Research (CNRS)
Gif-sur-Yvette
France
;
'Bouree Vigneron F.'
;
National Center for Scientific Research (CNRS)
Gif-sur-Yvette
France
;
'Oles A.'
;
Academy of Mining and Metallurgy
Department of Physics and Nuclear Techniques
Cracow
Poland
;
'Sikora W.'
;
Academy of Mining and Metallurgy
Department of Physics and Nuclear Techniques
Cracow
Poland
;
'Kolenda M.'
;
Jagiellonian University
M. Smoluchowski Institute of Physics
Cracow
Poland
;
'Szytula A.'
;
Jagiellonian University
M. Smoluchowski Institute of Physics
Cracow
Poland
;

# Standardized crystallographic data

_cell_length_a                           7.112
_cell_length_b                           4.558
_cell_length_c                           7.832
_cell_angle_alpha                        90
_cell_angle_beta                         90
_cell_angle_gamma                        90
_cell_volume                             253.9
_cell_formula_units_Z                    4
_space_group_IT_number                   62
_space_group_name_H-M_alt                'P n m a'
loop_
 _space_group_symop_id
 _space_group_symop_operation_xyz
 1 'x, y, z'
 2 '1/2-x, -y, 1/2+z'
 3 '1/2-x, 1/2+y, 1/2+z'
 4 '-x, -y, -z'
 5 '-x, 1/2+y, -z'
 6 '1/2+x, 1/2-y, 1/2-z'
 7 '1/2+x, y, 1/2-z'
 8 'x, 1/2-y, z'
loop_
 _atom_type_symbol
 Tb
 Pd
 Sn
loop_
 _atom_site_label
 _atom_site_type_symbol
 _atom_site_symmetry_multiplicity
 _atom_site_Wyckoff_symbol
 _atom_site_fract_x
 _atom_site_fract_y
 _atom_site_fract_z
 _atom_site_occupancy
 Tb Tb 4 c 0.0 0.25 0.689 1
 Pd Pd 4 c 0.184 0.25 0.078 1
 Sn Sn 4 c 0.28 0.25 0.422 1


_exptl_crystal_colour                    ?
_exptl_crystal_density_meas              ?
_exptl_crystal_density_diffrn            10.05
_cell_measurement_temperature            60
_cell_measurement_radiation              neutrons
_cell_measurement_wavelength             2.439
_pd_proc_wavelength                      2.439
_cell_measurement_reflns_used            ?
_diffrn_ambient_temperature              60
_diffrn_measurement_device               'automatic diffractometer'
_diffrn_measurement_device_type
'France, Saclay, Laboratoire Leon Brillouin LLB, ORPHEE reactor, G4.1'        
_diffrn_radiation_type                   neutrons
_diffrn_radiation_wavelength             2.439
_diffrn_reflns_number                    ?
_exptl_absorpt_coefficient_mu            ?
_exptl_absorpt_correction_type           ?
_computing_structure_solution            'starting values from the literature'
_refine_ls_number_parameters             ?
_refine_ls_number_reflns                 ?
_refine_ls_R_factor_gt                   ?
_refine_ls_wR_factor_gt                  ?
_pd_proc_ls_proof_R_factor               0.0423
_pd_proc_ls_proof_wR_factor              ?
_refine_ls_R_I_factor                    ?

# End of data set 461076

