##############################################################################
#                                                                            #
# Dy-Ge-Ni         # DyNiGe                                        #  461028 #
#                                                                            #
##############################################################################
#                                                                            #
#                           Pearson's Crystal Data                           #
#      Crystal Structure Database for Inorganic Compounds (on DVD)           #
#                              Release 2023/24                               #
#                  Editors: Pierre Villars and Karin Cenzual                 #
#                                                                            #
#   Copyright (c) ASM International & Material Phases Data System (MPDS),    #
# Switzerland & National Institute for Materials Science (NIMS), Japan, 2023 #
#                   All rights reserved. Version 2023.07                     #
#                                                                            #
#   This copy of Pearson's Crystal Data is licensed to:                      #
#   Hunter College - City University of New York                             #
#                                                                            #
##############################################################################

data_461028
_audit_creation_date                     2024-02-24
_audit_creation_method
;
Pearson's Crystal Data browser
;
#_database_code_PCD                      461028
_database_code_PDF                       04-003-9384

# Entry summary

_chemical_formula_structural             'Dy Ni Ge'
_chemical_formula_sum                    'Dy Ge Ni'
_chemical_name_mineral                   ?
_chemical_compound_source                ?
_chemical_name_structure_type            TiNiSi,oP12,62
_chemical_formula_weight                 293.8

# Bibliographic data

_publ_section_title
'Crystal and magnetic structure of TbNiGe and DyNiGe compounds'               
_journal_coden_ASTM                      JMMMDC
_journal_name_full                       'J. Magn. Magn. Mater.'
_journal_year                            1992
_journal_volume                          116
_journal_page_first                      375
_journal_page_last                       385
_journal_language                        English
loop_
 _publ_author_name
 _publ_author_address
'Andre G.'
;
National Center for Scientific Research (CNRS)
Gif-sur-Yvette
France
;
'Bouree Vigneron F.'
;
National Center for Scientific Research (CNRS)
Gif-sur-Yvette
France
;
'Kolenda M.'
;
Jagiellonian University
M. Smoluchowski Institute of Physics
Cracow
Poland
;
'Oles A.'
;
Academy of Mining and Metallurgy
Department of Physics and Nuclear Techniques
Cracow
Poland
;
'Pacyna A.W.'
;
Polish Academy of Sciences (PAN)
Henryk Niewodniczanski Institute of Nuclear Physics
Cracow
Poland
;
'Pinot M.'
;
National Center for Scientific Research (CNRS)
Gif-sur-Yvette
France
;
'Sikora W.'
;
Academy of Mining and Metallurgy
Department of Physics and Nuclear Techniques
Cracow
Poland
;
'Szytula A.'
;
Jagiellonian University
M. Smoluchowski Institute of Physics
Cracow
Poland
;

# Standardized crystallographic data

_cell_length_a                           6.824
_cell_length_b                           4.197
_cell_length_c                           7.228
_cell_angle_alpha                        90
_cell_angle_beta                         90
_cell_angle_gamma                        90
_cell_volume                             207
_cell_formula_units_Z                    4
_space_group_IT_number                   62
_space_group_name_H-M_alt                'P n m a'
loop_
 _space_group_symop_id
 _space_group_symop_operation_xyz
 1 'x, y, z'
 2 '1/2-x, -y, 1/2+z'
 3 '1/2-x, 1/2+y, 1/2+z'
 4 '-x, -y, -z'
 5 '-x, 1/2+y, -z'
 6 '1/2+x, 1/2-y, 1/2-z'
 7 '1/2+x, y, 1/2-z'
 8 'x, 1/2-y, z'

# Atomic positions taken from type-defining entry

loop_
 _atom_type_symbol
 Dy
 Ni
 Ge
loop_
 _atom_site_label
 _atom_site_type_symbol
 _atom_site_symmetry_multiplicity
 _atom_site_Wyckoff_symbol
 _atom_site_fract_x
 _atom_site_fract_y
 _atom_site_fract_z
 _atom_site_occupancy
 Dy1 Dy 4 c 0.0212 0.25 0.6803 1
 Ni1 Ni 4 c 0.142 0.25 0.0609 1
 Ge1 Ge 4 c 0.2651 0.25 0.3771 1


_exptl_crystal_colour                    ?
_exptl_crystal_density_meas              ?
_exptl_crystal_density_diffrn            9.43
_cell_measurement_temperature            12
_cell_measurement_radiation              neutrons
_cell_measurement_wavelength             2.426
_pd_proc_wavelength                      2.426
_cell_measurement_reflns_used            ?
_diffrn_ambient_temperature              ?
_diffrn_measurement_device               'automatic diffractometer'
_diffrn_measurement_device_type          ?
_diffrn_radiation_type                   ?
_diffrn_reflns_number                    ?
_exptl_absorpt_coefficient_mu            ?
_exptl_absorpt_correction_type           ?
_computing_structure_solution            ?
_refine_ls_number_parameters             ?
_refine_ls_number_reflns                 ?
_refine_ls_R_factor_gt                   ?
_refine_ls_wR_factor_gt                  ?

# End of data set 461028

