##############################################################################
#                                                                            #
# Er-Ge-Ni         # ErNiGe                                        #  461067 #
#                                                                            #
##############################################################################
#                                                                            #
#                           Pearson's Crystal Data                           #
#      Crystal Structure Database for Inorganic Compounds (on DVD)           #
#                              Release 2023/24                               #
#                  Editors: Pierre Villars and Karin Cenzual                 #
#                                                                            #
#   Copyright (c) ASM International & Material Phases Data System (MPDS),    #
# Switzerland & National Institute for Materials Science (NIMS), Japan, 2023 #
#                   All rights reserved. Version 2023.07                     #
#                                                                            #
#   This copy of Pearson's Crystal Data is licensed to:                      #
#   Hunter College - City University of New York                             #
#                                                                            #
##############################################################################

data_461067
_audit_creation_date                     2024-02-24
_audit_creation_method
;
Pearson's Crystal Data browser
;
#_database_code_PCD                      461067
_database_code_PDF                       04-003-9416

# Entry summary

_chemical_formula_structural             'Er Ni Ge'
_chemical_formula_sum                    'Er Ge Ni'
_chemical_name_mineral                   ?
_chemical_compound_source                ?
_chemical_name_structure_type            TiNiSi,oP12,62
_chemical_formula_weight                 298.5

# Bibliographic data

_publ_section_title
'Neutron diffraction and magnetic study of the HoNiGe and ErNiGe compounds'   
_journal_coden_ASTM                      JMMMDC
_journal_name_full                       'J. Magn. Magn. Mater.'
_journal_year                            1993
_journal_volume                          127
_journal_page_first                      83
_journal_page_last                       92
_journal_language                        English
loop_
 _publ_author_name
 _publ_author_address
'Andre G.'
;
National Center for Scientific Research (CNRS)
Gif-sur-Yvette
France
;
'Bouree Vigneron F.'
;
National Center for Scientific Research (CNRS)
Gif-sur-Yvette
France
;
'Bombik A.'
;
Academy of Mining and Metallurgy
Department of Physics and Nuclear Techniques
Cracow
Poland
;
'Oles A.'
;
Academy of Mining and Metallurgy
Department of Physics and Nuclear Techniques
Cracow
Poland
;
'Sikora W.'
;
Academy of Mining and Metallurgy
Department of Physics and Nuclear Techniques
Cracow
Poland
;
'Kolenda M.'
;
Jagiellonian University
M. Smoluchowski Institute of Physics
Cracow
Poland
;
'Szytula A.'
;
Jagiellonian University
M. Smoluchowski Institute of Physics
Cracow
Poland
;

# Standardized crystallographic data

_cell_length_a                           6.801
_cell_length_b                           4.188
_cell_length_c                           7.243
_cell_angle_alpha                        90
_cell_angle_beta                         90
_cell_angle_gamma                        90
_cell_volume                             206.3
_cell_formula_units_Z                    4
_space_group_IT_number                   62
_space_group_name_H-M_alt                'P n m a'
loop_
 _space_group_symop_id
 _space_group_symop_operation_xyz
 1 'x, y, z'
 2 '1/2-x, -y, 1/2+z'
 3 '1/2-x, 1/2+y, 1/2+z'
 4 '-x, -y, -z'
 5 '-x, 1/2+y, -z'
 6 '1/2+x, 1/2-y, 1/2-z'
 7 '1/2+x, y, 1/2-z'
 8 'x, 1/2-y, z'
loop_
 _atom_type_symbol
 Er
 Ni
 Ge
loop_
 _atom_site_label
 _atom_site_type_symbol
 _atom_site_symmetry_multiplicity
 _atom_site_Wyckoff_symbol
 _atom_site_fract_x
 _atom_site_fract_y
 _atom_site_fract_z
 _atom_site_occupancy
 Er Er 4 c 0.0 0.25 0.7048 1
 Ni Ni 4 c 0.1935 0.25 0.0983 1
 Ge Ge 4 c 0.3065 0.25 0.4017 1


_exptl_crystal_colour                    ?
_exptl_crystal_density_meas              ?
_exptl_crystal_density_diffrn            9.61
_cell_measurement_temperature            8
_cell_measurement_radiation              neutrons
_cell_measurement_wavelength             2.426
_pd_proc_wavelength                      2.426
_cell_measurement_reflns_used            ?
_diffrn_ambient_temperature              8
_diffrn_measurement_device               'automatic diffractometer'
_diffrn_measurement_device_type
'France, Saclay, Laboratoire Leon Brillouin LLB, ORPHEE reactor, G4.1'        
_diffrn_radiation_type                   neutrons
_diffrn_radiation_wavelength             2.426
_diffrn_reflns_number                    ?
_exptl_absorpt_coefficient_mu            ?
_exptl_absorpt_correction_type           ?
_computing_structure_solution            'starting values from the literature'
_refine_ls_number_parameters             ?
_refine_ls_number_reflns                 ?
_refine_ls_R_factor_gt                   ?
_refine_ls_wR_factor_gt                  ?
_pd_proc_ls_proof_R_factor               0.0442
_pd_proc_ls_proof_wR_factor              ?
_refine_ls_R_I_factor                    ?

# Published diffraction lines

loop_
 _refln_index_h
 _refln_index_k
 _refln_index_l
 _refln_d_spacing
 _refln_intensity_meas
 0 1 0 8.388 2226.4
 0 1 1 5.479 2234.2
 1 1 1 4.267 110.2
 0 1 2 3.322 553.4
 2 1 0 3.148 67.7
 1 1 2 2.981 362.6
 2 1 1 2.888 237.8
 0 3 0 2.786 202.8
 0 3 1 2.604 330.6

# End of data set 461067

