##############################################################################
#                                                                            #
# Er-Ga-Ni         # ErNiGa orth2                                  #  461030 #
#                                                                            #
##############################################################################
#                                                                            #
#                           Pearson's Crystal Data                           #
#      Crystal Structure Database for Inorganic Compounds (on DVD)           #
#                              Release 2023/24                               #
#                  Editors: Pierre Villars and Karin Cenzual                 #
#                                                                            #
#   Copyright (c) ASM International & Material Phases Data System (MPDS),    #
# Switzerland & National Institute for Materials Science (NIMS), Japan, 2023 #
#                   All rights reserved. Version 2023.07                     #
#                                                                            #
#   This copy of Pearson's Crystal Data is licensed to:                      #
#   Hunter College - City University of New York                             #
#                                                                            #
##############################################################################

data_461030
_audit_creation_date                     2024-02-24
_audit_creation_method
;
Pearson's Crystal Data browser
;
#_database_code_PCD                      461030
_database_code_PDF                       04-003-9386

# Entry summary

_chemical_formula_structural             'Er Ni Ga'
_chemical_formula_sum                    'Er Ga Ni'
_chemical_name_mineral                   ?
_chemical_compound_source                ?
_chemical_name_structure_type            KHg~2~,oI12,74
_chemical_formula_weight                 295.7

# Bibliographic data

_publ_section_title
'Transversal modulated magnetic structure of ErNiGa'                          
_journal_coden_ASTM                      JMMMDC
_journal_name_full                       'J. Magn. Magn. Mater.'
_journal_year                            1992
_journal_volume                          116
_journal_page_first                      95
_journal_page_last                       98
_journal_language                        English
loop_
 _publ_author_name
 _publ_author_address
'Kotsanidis P.A.'
;
Thrace Democritus University
Department of Electrical Engineering
Xanthi
Greece
;
'Yakinthos J.K.'
;
Thrace Democritus University
Department of Electrical Engineering
Xanthi
Greece
;
'Semitelou I.P.'
;
Thrace Democritus University
Department of Electrical Engineering
Xanthi
Greece
;
'Roudaut E.'
;
Atomic Energy Commission (CEA)
Departement de Recherche Fondamentale (DRF)
Grenoble
France
;

# Standardized crystallographic data

_cell_length_a                           4.262
_cell_length_b                           6.789
_cell_length_c                           7.305
_cell_angle_alpha                        90
_cell_angle_beta                         90
_cell_angle_gamma                        90
_cell_volume                             211.4
_cell_formula_units_Z                    4
_space_group_IT_number                   74
_space_group_name_H-M_alt                'I m m a'
loop_
 _space_group_symop_id
 _space_group_symop_operation_xyz
 1 'x, y, z'
 2 '-x, 1/2-y, z'
 3 '-x, -y, -z'
 4 '-x, 1/2+y, -z'
 5 '-x, y, z'
 6 'x, 1/2-y, z'
 7 'x, -y, -z'
 8 'x, 1/2+y, -z'
 9 '1/2+x, 1/2+y, 1/2+z'
 10 '1/2-x, 1-y, 1/2+z'
 11 '1/2-x, 1/2-y, 1/2-z'
 12 '1/2-x, 1+y, 1/2-z'
 13 '1/2-x, 1/2+y, 1/2+z'
 14 '1/2+x, 1-y, 1/2+z'
 15 '1/2+x, 1/2-y, 1/2-z'
 16 '1/2+x, 1+y, 1/2-z'
loop_
 _atom_type_symbol
 Ga
 Ni
 Er
loop_
 _atom_site_label
 _atom_site_type_symbol
 _atom_site_symmetry_multiplicity
 _atom_site_Wyckoff_symbol
 _atom_site_fract_x
 _atom_site_fract_y
 _atom_site_fract_z
 _atom_site_occupancy
 Ga1 Ga 8 h 0 0.051 0.165 0.5
 Ni2 Ni 8 h 0 0.051 0.165 0.5
 Er Er 4 e 0 0.25 0.553 1


_exptl_crystal_colour                    ?
_exptl_crystal_density_meas              ?
_exptl_crystal_density_diffrn            9.29
_cell_measurement_temperature            10
_cell_measurement_radiation              neutrons
_cell_measurement_wavelength             2.495
_pd_proc_wavelength                      2.495
_cell_measurement_reflns_used            ?
_diffrn_ambient_temperature              10
_diffrn_measurement_device               'automatic diffractometer'
_diffrn_measurement_device_type
;
France, Grenoble, Centre d'Etudes Nucleaires CEN, SILOE reactor, DN5
;
_diffrn_radiation_type                   neutrons
_diffrn_radiation_wavelength             2.495
_diffrn_reflns_number                    ?
_exptl_absorpt_coefficient_mu            ?
_exptl_absorpt_correction_type           ?
_computing_structure_solution            'starting values from the literature'
_refine_ls_number_parameters             ?
_refine_ls_number_reflns                 ?
_refine_ls_R_factor_gt                   ?
_refine_ls_wR_factor_gt                  ?
_pd_proc_ls_proof_R_factor               0.0715
_pd_proc_ls_proof_wR_factor              ?
_refine_ls_R_I_factor                    ?

# End of data set 461030

