##############################################################################
#                                                                            #
# Ge-Nd-Ni         # NdNiGe2                                       #  461073 #
#                                                                            #
##############################################################################
#                                                                            #
#                           Pearson's Crystal Data                           #
#      Crystal Structure Database for Inorganic Compounds (on DVD)           #
#                              Release 2023/24                               #
#                  Editors: Pierre Villars and Karin Cenzual                 #
#                                                                            #
#   Copyright (c) ASM International & Material Phases Data System (MPDS),    #
# Switzerland & National Institute for Materials Science (NIMS), Japan, 2023 #
#                   All rights reserved. Version 2023.07                     #
#                                                                            #
#   This copy of Pearson's Crystal Data is licensed to:                      #
#   Hunter College - City University of New York                             #
#                                                                            #
##############################################################################

data_461073
_audit_creation_date                     2024-02-25
_audit_creation_method
;
Pearson's Crystal Data browser
;
#_database_code_PCD                      461073
_database_code_PDF                       04-003-9422

# Entry summary

_chemical_formula_structural             'Nd Ni Ge~2~'
_chemical_formula_sum                    'Ge2 Nd Ni'
_chemical_name_mineral                   ?
_chemical_compound_source                ?
_chemical_name_structure_type            CeNiSi~2~,oS16,63
_chemical_formula_weight                 348.1

# Bibliographic data

_publ_section_title
;
Magnetic ordering of NdNiGe~2~ and CeNiGe~2~ studied by neutron diffraction and magnetic measurements
;
_journal_coden_ASTM                      JMMMDC
_journal_name_full                       'J. Magn. Magn. Mater.'
_journal_year                            1993
_journal_volume                          125
_journal_page_first                      151
_journal_page_last                       156
_journal_language                        English
loop_
 _publ_author_name
 _publ_author_address
'Schobinger Papamantellos P.'
;
Swiss Federal Institute of Technology (ETHZ)
Institut fur Kristallographie und Petrographie
Zurich
Switzerland
;
'Krimmel A.'
;
Institut Laue-Langevin (ILL)
Grenoble
France
;
'Grauel A.'
;
Darmstadt Technical University (TU Darmstadt)
Institut fur Festkorperphysik
Darmstadt
Germany
;
'Buschow K.H.J.'
;
Philips Research Laboratories
Eindhoven
Netherlands
;

# Standardized crystallographic data

_cell_length_a                           4.1958
_cell_length_b                           16.7363
_cell_length_c                           4.1713
_cell_angle_alpha                        90
_cell_angle_beta                         90
_cell_angle_gamma                        90
_cell_volume                             292.9
_cell_formula_units_Z                    4
_space_group_IT_number                   63
_space_group_name_H-M_alt                'C m c m'
loop_
 _space_group_symop_id
 _space_group_symop_operation_xyz
 1 'x, y, z'
 2 '-x, -y, -z'
 3 '-x, -y, 1/2+z'
 4 '-x, y, 1/2-z'
 5 '-x, y, z'
 6 'x, -y, -z'
 7 'x, -y, 1/2+z'
 8 'x, y, 1/2-z'
 9 '1/2+x, 1/2+y, z'
 10 '1/2-x, 1/2-y, -z'
 11 '1/2-x, 1/2-y, 1/2+z'
 12 '1/2-x, 1/2+y, 1/2-z'
 13 '1/2-x, 1/2+y, z'
 14 '1/2+x, 1/2-y, -z'
 15 '1/2+x, 1/2-y, 1/2+z'
 16 '1/2+x, 1/2+y, 1/2-z'
loop_
 _atom_type_symbol
 Ge
 Ni
 Nd
loop_
 _atom_site_label
 _atom_site_type_symbol
 _atom_site_symmetry_multiplicity
 _atom_site_Wyckoff_symbol
 _atom_site_fract_x
 _atom_site_fract_y
 _atom_site_fract_z
 _atom_site_occupancy
 Ge1 Ge 4 c 0 0.0421 0.25 1
 Ni Ni 4 c 0 0.1818 0.25 1
 Nd Nd 4 c 0 0.3918 0.25 1
 Ge2 Ge 4 c 0 0.7511 0.25 1


_exptl_crystal_colour                    ?
_exptl_crystal_density_meas              ?
_exptl_crystal_density_diffrn            7.89
_cell_measurement_temperature            1.5
_cell_measurement_radiation              neutrons
_cell_measurement_wavelength             1.70012
_pd_proc_wavelength                      1.70012
_cell_measurement_reflns_used            ?
_diffrn_ambient_temperature              1.5
_diffrn_measurement_device               'automatic diffractometer'
_diffrn_measurement_device_type
'Switzerland, Wurenlingen, Paul Scherrer Institute, SAPHIR reactor'           
_diffrn_radiation_type                   neutrons
_diffrn_radiation_wavelength             1.70012
_diffrn_reflns_number                    ?
_exptl_absorpt_coefficient_mu            ?
_exptl_absorpt_correction_type           ?
_computing_structure_solution            'starting values from the literature'
_refine_ls_number_parameters             ?
_refine_ls_number_reflns                 ?
_refine_ls_R_factor_gt                   ?
_refine_ls_wR_factor_gt                  ?
_pd_proc_ls_proof_R_factor               0.040
_pd_proc_ls_proof_wR_factor              0.072
_refine_ls_R_I_factor                    ?

# End of data set 461073

