##############################################################################
#                                                                            #
# Ge-Ni-Pr         # Pr3Ni4Ge4                                     #  461417 #
#                                                                            #
##############################################################################
#                                                                            #
#                           Pearson's Crystal Data                           #
#      Crystal Structure Database for Inorganic Compounds (on DVD)           #
#                              Release 2023/24                               #
#                  Editors: Pierre Villars and Karin Cenzual                 #
#                                                                            #
#   Copyright (c) ASM International & Material Phases Data System (MPDS),    #
# Switzerland & National Institute for Materials Science (NIMS), Japan, 2023 #
#                   All rights reserved. Version 2023.07                     #
#                                                                            #
#   This copy of Pearson's Crystal Data is licensed to:                      #
#   Hunter College - City University of New York                             #
#                                                                            #
##############################################################################

data_461417
_audit_creation_date                     2024-02-25
_audit_creation_method
;
Pearson's Crystal Data browser
;
#_database_code_PCD                      461417
_database_code_PDF                       04-003-9693

# Entry summary

_chemical_formula_structural             'Pr~3~ Ni~4~ Ge~4~'
_chemical_formula_sum                    'Ge4 Ni4 Pr3'
_chemical_name_mineral                   ?
_chemical_compound_source                ?
_chemical_name_structure_type            U~3~Ni~4~Si~4~,oI22,71
_chemical_formula_weight                 947.9

# Bibliographic data

_publ_section_title                      'New ternary praseodymium germanides'
_journal_coden_ASTM                      INOMAF
_journal_name_full                       'Inorg. Mater.'
_journal_year                            1987
_journal_volume                          23
_journal_page_first                      504
_journal_page_last                       508
_journal_language                        English
loop_
 _publ_author_name
 _publ_author_address
'Fedyna M.F.'
;
Lviv Ivan Franko State University
Lviv
Ukraine
;
'Pecharskii V.K.'
;
Lviv Ivan Franko State University
Department of Inorganic Chemistry
Lviv
Ukraine
;
'Bodak O.I.'
;
Lviv Ivan Franko State University
Department of Inorganic Chemistry
Lviv
Ukraine
;

# Standardized crystallographic data

_cell_length_a                           4.098
_cell_length_b                           4.182
_cell_length_c                           24.013
_cell_angle_alpha                        90
_cell_angle_beta                         90
_cell_angle_gamma                        90
_cell_volume                             411.5
_cell_formula_units_Z                    2
_space_group_IT_number                   71
_space_group_name_H-M_alt                'I m m m'
loop_
 _space_group_symop_id
 _space_group_symop_operation_xyz
 1 'x, y, z'
 2 '-x, -y, -z'
 3 '-x, -y, z'
 4 '-x, y, -z'
 5 '-x, y, z'
 6 'x, -y, -z'
 7 'x, -y, z'
 8 'x, y, -z'
 9 '1/2+x, 1/2+y, 1/2+z'
 10 '1/2-x, 1/2-y, 1/2-z'
 11 '1/2-x, 1/2-y, 1/2+z'
 12 '1/2-x, 1/2+y, 1/2-z'
 13 '1/2-x, 1/2+y, 1/2+z'
 14 '1/2+x, 1/2-y, 1/2-z'
 15 '1/2+x, 1/2-y, 1/2+z'
 16 '1/2+x, 1/2+y, 1/2-z'
loop_
 _atom_type_symbol
 Ge
 Ni
 Pr
loop_
 _atom_site_label
 _atom_site_type_symbol
 _atom_site_symmetry_multiplicity
 _atom_site_Wyckoff_symbol
 _atom_site_fract_x
 _atom_site_fract_y
 _atom_site_fract_z
 _atom_site_occupancy
 Ge2 Ge 4 j 0.5 0 0.0986 1
 Ni1 Ni 4 j 0.5 0 0.1983 1
 Pr1 Pr 4 j 0.5 0 0.3533 1
 Ge1 Ge 4 i 0 0 0.2533 1
 Ni2 Ni 4 i 0 0 0.4446 1
 Pr2 Pr 2 a 0 0 0 1


_exptl_crystal_colour                    ?
_exptl_crystal_density_meas              ?
_exptl_crystal_density_diffrn            7.65
_cell_measurement_temperature            ?
_cell_measurement_radiation              'X-rays, Fe Ka'
_cell_measurement_reflns_used            ?
_diffrn_ambient_temperature              ?
_diffrn_measurement_device               'automatic diffractometer'
_diffrn_measurement_device_type          DRON-2
_diffrn_radiation_type                   'X-rays, Fe Ka'
_diffrn_reflns_number                    ?
_exptl_absorpt_coefficient_mu            ?
_exptl_absorpt_correction_type           ?
_computing_structure_solution            'starting values from the literature'
_refine_ls_number_parameters             ?
_refine_ls_number_reflns                 ?
_refine_ls_R_factor_gt                   0.114
_refine_ls_wR_factor_gt                  ?
_pd_proc_ls_proof_R_factor               ?
_pd_proc_ls_proof_wR_factor              ?
_refine_ls_R_I_factor                    ?

# Published diffraction lines

loop_
 _refln_index_h
 _refln_index_k
 _refln_index_l
 _refln_d_spacing
 _refln_intensity_meas
 0 1 5 3.152 30
 1 0 5 3.112 22
 0 0 8 2.99 12
 1 1 0 2.926 28
 1 1 2 2.849 74
 0 1 7 2.66 29
 1 1 4 2.635 999
 0 0 10 2.396 5
 1 1 6 2.368 50
 0 1 9 2.248 101
 1 1 8 2.093 174
 0 2 2 2.053 154
 2 0 4 1.94 3
 0 1 11 1.934 120
 1 0 11 1.928 10
 1 1 10 1.856 23
 0 2 6 1.853 3
 2 1 3 1.793 12
 1 2 5 1.735 4
 2 1 5 1.718 18
 1 0 13 1.694 48
 2 0 8 1.678 24
 1 1 12 1.654 11
 1 2 7 1.636 155
 2 1 7 1.614 16
 0 2 10 1.579 5
 2 1 9 1.516 68
 0 1 15 1.494 4
 1 0 15 1.485 4
 1 1 14 1.48 5
 2 2 0 1.467 97
 2 2 2 1.452 3
 0 2 12 1.445 5
 2 1 11 1.407 75
 2 2 6 1.378 5
 0 3 3 1.373 2
 0 3 5 1.34 5
 1 1 16 1.336 42
 0 0 18 1.333 3
 0 2 14 1.325 8
 2 2 8 1.315 10
 1 3 2 1.312 68
 2 1 13 1.305 20
 3 1 10 1.297 9
 0 3 7 1.292 15
 1 3 4 1.288 55
 3 1 4 1.269 70
 2 2 10 1.247 7
 0 3 9 1.236 30
 3 0 9 1.217 3
 1 2 15 1.215 27
 0 0 20 1.2 30
 0 3 11 1.174 7
 2 3 3 1.141 9
 2 3 5 1.12 7
 2 2 14 1.114 10
 0 3 13 1.112 10
 1 1 20 1.111 8
 0 1 21 1.103 3
 1 3 12 1.101 3
 2 3 7 1.092 10
 3 1 12 1.089 5
 3 2 7 1.085 87
 3 0 13 1.077 14
 2 3 9 1.059 45
 1 3 14 1.047 5
 0 4 0 1.042 105
 3 0 15 1.039 6
 2 0 20 1.035 84
 4 0 0 1.025 50

# End of data set 461417

