##############################################################################
#                                                                            #
# Co-Si-U          # UCo2Si2                                       #  462136 #
#                                                                            #
##############################################################################
#                                                                            #
#                           Pearson's Crystal Data                           #
#      Crystal Structure Database for Inorganic Compounds (on DVD)           #
#                              Release 2023/24                               #
#                  Editors: Pierre Villars and Karin Cenzual                 #
#                                                                            #
#   Copyright (c) ASM International & Material Phases Data System (MPDS),    #
# Switzerland & National Institute for Materials Science (NIMS), Japan, 2023 #
#                   All rights reserved. Version 2023.07                     #
#                                                                            #
#   This copy of Pearson's Crystal Data is licensed to:                      #
#   Hunter College - City University of New York                             #
#                                                                            #
##############################################################################

data_462136
_audit_creation_date                     2024-02-24
_audit_creation_method
;
Pearson's Crystal Data browser
;
#_database_code_PCD                      462136
_database_code_PDF                       04-004-0229

# Entry summary

_chemical_formula_structural             'U Co~2~ Si~2~'
_chemical_formula_sum                    'Co2 Si2 U'
_chemical_name_mineral                   ?
_chemical_compound_source                ?
_chemical_name_structure_type            CeAl~2~Ga~2~,tI10,139
_chemical_formula_weight                 412.1

# Bibliographic data

_publ_section_title
'Uranium-Transition Metal Silicides of the AB~2~X~2~ Composition'             
_journal_coden_ASTM                      ZAACAB
_journal_name_full                       'Z. Anorg. Allg. Chem.'
_journal_year                            1967
_journal_volume                          356
_journal_page_first                      96
_journal_page_last                       104
_journal_language                        English
loop_
 _publ_author_name
 _publ_author_address
'Ban Z.'
;
Rudjer Boskovic Institute
Laboratory of General and Inorganic Chemistry
Zagreb
Croatia
;
'Sikirica M.'
;
Zagreb University
Laboratory of General and Inorganic Chemistry
Zagreb
Croatia
;

# Standardized crystallographic data

_cell_length_a                           3.905
_cell_length_b                           3.905
_cell_length_c                           9.634
_cell_angle_alpha                        90
_cell_angle_beta                         90
_cell_angle_gamma                        90
_cell_volume                             146.9
_cell_formula_units_Z                    2
_space_group_IT_number                   139
_space_group_name_H-M_alt                'I 4/m m m'
loop_
 _space_group_symop_id
 _space_group_symop_operation_xyz
 1 'x, y, z'
 2 '-x, -y, -z'
 3 '-x, -y, z'
 4 '-x, y, -z'
 5 '-x, y, z'
 6 '-y, -x, -z'
 7 '-y, -x, z'
 8 '-y, x, -z'
 9 '-y, x, z'
 10 'x, -y, -z'
 11 'x, -y, z'
 12 'x, y, -z'
 13 'y, -x, -z'
 14 'y, -x, z'
 15 'y, x, -z'
 16 'y, x, z'
 17 '1/2+x, 1/2+y, 1/2+z'
 18 '1/2-x, 1/2-y, 1/2-z'
 19 '1/2-x, 1/2-y, 1/2+z'
 20 '1/2-x, 1/2+y, 1/2-z'
 21 '1/2-x, 1/2+y, 1/2+z'
 22 '1/2-y, 1/2-x, 1/2-z'
 23 '1/2-y, 1/2-x, 1/2+z'
 24 '1/2-y, 1/2+x, 1/2-z'
 25 '1/2-y, 1/2+x, 1/2+z'
 26 '1/2+x, 1/2-y, 1/2-z'
 27 '1/2+x, 1/2-y, 1/2+z'
 28 '1/2+x, 1/2+y, 1/2-z'
 29 '1/2+y, 1/2-x, 1/2-z'
 30 '1/2+y, 1/2-x, 1/2+z'
 31 '1/2+y, 1/2+x, 1/2-z'
 32 '1/2+y, 1/2+x, 1/2+z'

# Atomic positions taken from type-defining entry

loop_
 _atom_type_symbol
 Si
 Co
 U
loop_
 _atom_site_label
 _atom_site_type_symbol
 _atom_site_symmetry_multiplicity
 _atom_site_Wyckoff_symbol
 _atom_site_fract_x
 _atom_site_fract_y
 _atom_site_fract_z
 _atom_site_occupancy
 Si1 Si 4 e 0 0 0.387 1
 Co1 Co 4 d 0 0.5 0.25 1
 U1 U 2 a 0 0 0 1


_exptl_crystal_colour                    ?
_exptl_crystal_density_meas              ?
_exptl_crystal_density_diffrn            9.32
_cell_measurement_temperature            ?
_cell_measurement_radiation              'X-rays, Cu Ka'
_cell_measurement_reflns_used            ?
_diffrn_ambient_temperature              ?
_diffrn_measurement_device               'automatic diffractometer'
_diffrn_measurement_device_type          ?
_diffrn_radiation_type                   ?
_diffrn_reflns_number                    ?
_exptl_absorpt_coefficient_mu            ?
_exptl_absorpt_correction_type           ?
_computing_structure_solution            ?
_refine_ls_number_parameters             ?
_refine_ls_number_reflns                 ?
_refine_ls_R_factor_gt                   ?
_refine_ls_wR_factor_gt                  ?

# Published diffraction lines

loop_
 _refln_index_h
 _refln_index_k
 _refln_index_l
 _refln_d_spacing
 _refln_intensity_meas
 0 0 2 4.818 14
 1 0 1 3.622 65
 1 1 0 2.764 12
 1 0 3 2.483 75
 0 0 4 2.4 100
 2 0 0 1.954 25
 2 0 2 1.811 9
 1 0 5 1.73 50
 2 1 1 1.72 26
 2 1 3 1.535 34
 2 0 4 1.517 24
 1 1 6 1.39 22
 2 2 0 1.382 14
 2 2 2 1.328 3
 1 0 7 1.299 4
 2 1 5 1.295 26
 3 0 1 1.29 14
 3 0 3 1.214 14
 0 0 8 1.205 6
 2 2 4 1.198 17
 2 1 7 1.082 8
 3 0 5 1.079 15
 3 2 1 1.077 11
 3 2 3 1.027 12
 2 0 8 1.026 18
 3 1 6 0.979 10
 4 0 0 0.977 7
 3 0 7 0.946 8
 3 2 5 0.945 15
 4 1 1 0.943 12
 2 1 9 0.914 6
 1 1 10 0.91 14
 4 1 3 0.909 15
 2 2 8 0.908 18
 4 0 4 0.905 14
 4 2 0 0.874 12
 3 1 8 0.863 8
 4 2 2 0.86 8
 1 0 11 0.855 5
 3 2 7 0.852 8
 4 1 5 0.851 10
 4 2 4 0.822 7
 3 3 6 0.799 5

# End of data set 462136

