##############################################################################
#                                                                            #
# Ni-Si-U          # UNi2Si2                                       #  462137 #
#                                                                            #
##############################################################################
#                                                                            #
#                           Pearson's Crystal Data                           #
#      Crystal Structure Database for Inorganic Compounds (on DVD)           #
#                              Release 2023/24                               #
#                  Editors: Pierre Villars and Karin Cenzual                 #
#                                                                            #
#   Copyright (c) ASM International & Material Phases Data System (MPDS),    #
# Switzerland & National Institute for Materials Science (NIMS), Japan, 2023 #
#                   All rights reserved. Version 2023.07                     #
#                                                                            #
#   This copy of Pearson's Crystal Data is licensed to:                      #
#   Hunter College - City University of New York                             #
#                                                                            #
##############################################################################

data_462137
_audit_creation_date                     2024-02-25
_audit_creation_method
;
Pearson's Crystal Data browser
;
#_database_code_PCD                      462137
_database_code_PDF                       04-004-0230

# Entry summary

_chemical_formula_structural             'U Ni~2~ Si~2~'
_chemical_formula_sum                    'Ni2 Si2 U'
_chemical_name_mineral                   ?
_chemical_compound_source                ?
_chemical_name_structure_type            CeAl~2~Ga~2~,tI10,139
_chemical_formula_weight                 411.6

# Bibliographic data

_publ_section_title
'Uranium-Transition Metal Silicides of the AB~2~X~2~ Composition'             
_journal_coden_ASTM                      ZAACAB
_journal_name_full                       'Z. Anorg. Allg. Chem.'
_journal_year                            1967
_journal_volume                          356
_journal_page_first                      96
_journal_page_last                       104
_journal_language                        English
loop_
 _publ_author_name
 _publ_author_address
'Ban Z.'
;
Rudjer Boskovic Institute
Laboratory of General and Inorganic Chemistry
Zagreb
Croatia
;
'Sikirica M.'
;
Zagreb University
Laboratory of General and Inorganic Chemistry
Zagreb
Croatia
;

# Standardized crystallographic data

_cell_length_a                           3.961
_cell_length_b                           3.961
_cell_length_c                           9.517
_cell_angle_alpha                        90
_cell_angle_beta                         90
_cell_angle_gamma                        90
_cell_volume                             149.3
_cell_formula_units_Z                    2
_space_group_IT_number                   139
_space_group_name_H-M_alt                'I 4/m m m'
loop_
 _space_group_symop_id
 _space_group_symop_operation_xyz
 1 'x, y, z'
 2 '-x, -y, -z'
 3 '-x, -y, z'
 4 '-x, y, -z'
 5 '-x, y, z'
 6 '-y, -x, -z'
 7 '-y, -x, z'
 8 '-y, x, -z'
 9 '-y, x, z'
 10 'x, -y, -z'
 11 'x, -y, z'
 12 'x, y, -z'
 13 'y, -x, -z'
 14 'y, -x, z'
 15 'y, x, -z'
 16 'y, x, z'
 17 '1/2+x, 1/2+y, 1/2+z'
 18 '1/2-x, 1/2-y, 1/2-z'
 19 '1/2-x, 1/2-y, 1/2+z'
 20 '1/2-x, 1/2+y, 1/2-z'
 21 '1/2-x, 1/2+y, 1/2+z'
 22 '1/2-y, 1/2-x, 1/2-z'
 23 '1/2-y, 1/2-x, 1/2+z'
 24 '1/2-y, 1/2+x, 1/2-z'
 25 '1/2-y, 1/2+x, 1/2+z'
 26 '1/2+x, 1/2-y, 1/2-z'
 27 '1/2+x, 1/2-y, 1/2+z'
 28 '1/2+x, 1/2+y, 1/2-z'
 29 '1/2+y, 1/2-x, 1/2-z'
 30 '1/2+y, 1/2-x, 1/2+z'
 31 '1/2+y, 1/2+x, 1/2-z'
 32 '1/2+y, 1/2+x, 1/2+z'
loop_
 _atom_type_symbol
 Si
 Ni
 U
loop_
 _atom_site_label
 _atom_site_type_symbol
 _atom_site_symmetry_multiplicity
 _atom_site_Wyckoff_symbol
 _atom_site_fract_x
 _atom_site_fract_y
 _atom_site_fract_z
 _atom_site_occupancy
 Si Si 4 e 0 0 0.375 1
 Ni Ni 4 d 0 0.5 0.25 1
 U U 2 a 0 0 0 1


_exptl_crystal_colour                    ?
_exptl_crystal_density_meas              ?
_exptl_crystal_density_diffrn            9.16
_cell_measurement_temperature            ?
_cell_measurement_radiation              'X-rays, Cu Ka'
_cell_measurement_reflns_used            ?
_diffrn_ambient_temperature              ?
_diffrn_measurement_device               'automatic diffractometer'
_diffrn_measurement_device_type          Philips
_diffrn_radiation_type                   'X-rays, Cu Ka'
_diffrn_reflns_number                    ?
_exptl_absorpt_coefficient_mu            ?
_exptl_absorpt_correction_type           ?
_computing_structure_solution            'starting values from the literature'
_refine_ls_number_parameters             ?
_refine_ls_number_reflns                 ?
_refine_ls_R_factor_gt                   ?
_refine_ls_wR_factor_gt                  ?
_pd_proc_ls_proof_R_factor               ?
_pd_proc_ls_proof_wR_factor              ?
_refine_ls_R_I_factor                    ?

# Published diffraction lines

loop_
 _refln_index_h
 _refln_index_k
 _refln_index_l
 _refln_d_spacing
 _refln_intensity_meas
 0 0 2 4.754 28
 1 0 1 3.659 133
 1 1 0 2.8 34
 1 0 3 2.475 121
 1 1 2 2.414 145
 0 0 4 2.391 44
 2 0 0 1.981 80
 2 0 2 1.83 10
 1 1 4 1.814 4
 2 1 2 1.743 48
 1 0 5 1.717 52
 0 0 6 1.587 2
 2 1 3 1.548 62
 2 0 4 1.526 36
 2 2 0 1.401 21
 1 1 6 1.381 32
 2 2 2 1.344 6
 3 0 1 1.308 9
 2 1 5 1.297 31
 1 0 7 1.287 6
 3 1 0 1.253 6
 2 0 6 1.239 3
 3 0 3 1.22 13
 3 1 2 1.212 43
 0 0 8 1.19 6
 1 1 8 1.096 5
 3 2 1 1.093 15
 3 0 5 1.086 14
 2 1 7 1.08 12
 2 2 6 1.051 4
 3 2 3 1.039 20
 2 0 8 1.021 26
 4 0 0 0.991 12
 3 1 6 0.984 24
 4 4 1 0.956 8
 3 2 5 0.952 16
 4 1 3 0.92 18
 3 3 2 0.917 14
 4 0 4 0.915 12
 2 1 9 0.909 11
 2 2 8 0.907 16
 1 1 10 0.902 8
 4 2 0 0.887 11
 4 2 2 0.871 5
 3 1 8 0.863 11
 2 0 10 0.858 19
 3 2 7 0.855 13
 1 0 11 0.846 7
 4 2 4 0.831 30
 3 0 9 0.826 6
 3 3 6 0.805 30
 0 0 12 0.794 3
 5 0 1 0.79 35
 4 1 7 0.785 35
 2 1 11 0.778 60
 4 2 6 0.774 20

# End of data set 462137

