##############################################################################
#                                                                            #
# Rh-Si-Th         # ThRhSi                                        #  462213 #
#                                                                            #
##############################################################################
#                                                                            #
#                           Pearson's Crystal Data                           #
#      Crystal Structure Database for Inorganic Compounds (on DVD)           #
#                              Release 2023/24                               #
#                  Editors: Pierre Villars and Karin Cenzual                 #
#                                                                            #
#   Copyright (c) ASM International & Material Phases Data System (MPDS),    #
# Switzerland & National Institute for Materials Science (NIMS), Japan, 2023 #
#                   All rights reserved. Version 2023.07                     #
#                                                                            #
#   This copy of Pearson's Crystal Data is licensed to:                      #
#   Hunter College - City University of New York                             #
#                                                                            #
##############################################################################

data_462213
_audit_creation_date                     2024-02-25
_audit_creation_method
;
Pearson's Crystal Data browser
;
#_database_code_PCD                      462213
_database_code_PDF                       04-004-0275

# Entry summary

_chemical_formula_structural             'Th Rh Si'
_chemical_formula_sum                    'Rh Si Th'
_chemical_name_mineral                   ?
_chemical_compound_source                ?
_chemical_name_structure_type            LaPtSi,tI12,109
_chemical_formula_weight                 363.0

# Bibliographic data

_publ_section_title
;
Etude de nouveaux supraconducteurs ThIr~x~Si~2-x~ (0 <= x <= 1) par chaleur specifique a basse temperature et spectroscopie XPS
;
_journal_coden_ASTM                      MRBUAC
_journal_name_full                       'Mater. Res. Bull.'
_journal_year                            1986
_journal_volume                          21
_journal_page_first                      183
_journal_page_last                       194
_journal_language                        French
loop_
 _publ_author_name
 _publ_author_address
'Chevalier B.'
;
Bordeaux I University
Laboratoire de Chimie du Solide (LCS)
Talence
France
;
'Kappler J.P.'
;
Strasbourg University
Laboratoire de Physique
Strasbourg
France
;
'Zhong W.X.'
;
Bordeaux I University
Laboratoire de Chimie du Solide (LCS)
Talence
France
;
'Buffat B.'
;
Bordeaux I University
Laboratoire de Chimie du Solide (LCS)
Talence
France
;
'Etourneau J.R.'
;
Bordeaux I University
Laboratoire de Chimie du Solide (LCS)
Talence
France
;
'Hagenmuller P.'
;
Bordeaux I University
Laboratoire de Chimie du Solide (LCS)
Talence
France
;
'Lejay P.'
;
National Center for Scientific Research (CNRS)
Grenoble
France
;
'Porte L.'
;
Lyon I Claude Bernard University (UCBL)
Institut de Physique Nucleaire de Lyon (IPNL)
Villeurbanne
France
;
'Duc T.M.'
;
Lyon I Claude Bernard University (UCBL)
Institut de Physique Nucleaire de Lyon (IPNL)
Villeurbanne
France
;
'Besnus M.J.'
;
Strasbourg University
Laboratoire de Physique
Strasbourg
France
;

# Standardized crystallographic data

_cell_length_a                           4.13
_cell_length_b                           4.13
_cell_length_c                           14.27
_cell_angle_alpha                        90
_cell_angle_beta                         90
_cell_angle_gamma                        90
_cell_volume                             243.4
_cell_formula_units_Z                    4
_space_group_IT_number                   109
_space_group_name_H-M_alt                'I 41 m d'
loop_
 _space_group_symop_id
 _space_group_symop_operation_xyz
 1 'x, y, z'
 2 '-x, -y, z'
 3 '-x, y, z'
 4 '-y, 1/2-x, 1/4+z'
 5 '-y, 1/2+x, 1/4+z'
 6 'x, -y, z'
 7 'y, 1/2-x, 1/4+z'
 8 'y, 1/2+x, 1/4+z'
 9 '1/2+x, 1/2+y, 1/2+z'
 10 '1/2-x, 1/2-y, 1/2+z'
 11 '1/2-x, 1/2+y, 1/2+z'
 12 '1/2-y, 1-x, 3/4+z'
 13 '1/2-y, 1+x, 3/4+z'
 14 '1/2+x, 1/2-y, 1/2+z'
 15 '1/2+y, 1-x, 3/4+z'
 16 '1/2+y, 1+x, 3/4+z'

# Atomic positions taken from type-defining entry

loop_
 _atom_type_symbol
 Si
 Rh
 Th
loop_
 _atom_site_label
 _atom_site_type_symbol
 _atom_site_symmetry_multiplicity
 _atom_site_Wyckoff_symbol
 _atom_site_fract_x
 _atom_site_fract_y
 _atom_site_fract_z
 _atom_site_occupancy
 Si1 Si 4 a 0 0 0.0 1
 Rh1 Rh 4 a 0 0 0.166 1
 Th1 Th 4 a 0 0 0.581 1


_exptl_crystal_colour                    ?
_exptl_crystal_density_meas              ?
_exptl_crystal_density_diffrn            9.91
_cell_measurement_temperature            ?
_cell_measurement_radiation              X-rays
_cell_measurement_reflns_used            ?
_diffrn_ambient_temperature              ?
_diffrn_measurement_device               film
_diffrn_measurement_device_type          ?
_diffrn_radiation_type                   ?
_diffrn_reflns_number                    ?
_exptl_absorpt_coefficient_mu            ?
_exptl_absorpt_correction_type           ?
_computing_structure_solution            ?
_refine_ls_number_parameters             ?
_refine_ls_number_reflns                 ?
_refine_ls_R_factor_gt                   ?
_refine_ls_wR_factor_gt                  ?

# End of data set 462213

