##############################################################################
#                                                                            #
# Fe-Ga-U          # UFeGa5                                        #  535525 #
#                                                                            #
##############################################################################
#                                                                            #
#                           Pearson's Crystal Data                           #
#      Crystal Structure Database for Inorganic Compounds (on DVD)           #
#                              Release 2023/24                               #
#                  Editors: Pierre Villars and Karin Cenzual                 #
#                                                                            #
#   Copyright (c) ASM International & Material Phases Data System (MPDS),    #
# Switzerland & National Institute for Materials Science (NIMS), Japan, 2023 #
#                   All rights reserved. Version 2023.07                     #
#                                                                            #
#   This copy of Pearson's Crystal Data is licensed to:                      #
#   Hunter College - City University of New York                             #
#                                                                            #
##############################################################################

data_535525
_audit_creation_date                     2024-02-24
_audit_creation_method
;
Pearson's Crystal Data browser
;
#_database_code_PCD                      535525
_database_code_PDF                       04-004-9510

# Entry summary

_chemical_formula_structural             'U Fe Ga~5~'
_chemical_formula_sum                    'Fe Ga5 U'
_chemical_name_mineral                   ?
_chemical_compound_source                ?
_chemical_name_structure_type            HoCoGa~5~,tP7,123
_chemical_formula_weight                 642.5

# Bibliographic data

_publ_section_title
;
Structural chemistry and magnetic behaviour of ternary uranium gallides U(Fe,Co,Ni,Ru,Rh,Pd,Os,Ir,Pt)Ga~5~
;
_journal_coden_ASTM                      JCOMAH
_journal_name_full                       'J. Less-Common Met.'
_journal_year                            1986
_journal_volume                          121
_journal_page_first                      497
_journal_page_last                       505
_journal_language                        English
loop_
 _publ_author_name
 _publ_author_address
'Grin Y.'
;
Vienna University
Institut fur Physikalische Chemie
Vienna
Austria
;
'Rogl P.'
;
Vienna University
Institut fur Physikalische Chemie
Vienna
Austria
;
'Hiebl K.'
;
Vienna University
Institut fur Physikalische Chemie
Vienna
Austria
;

# Standardized crystallographic data

_cell_length_a                           4.261
_cell_length_b                           4.261
_cell_length_c                           6.734
_cell_angle_alpha                        90
_cell_angle_beta                         90
_cell_angle_gamma                        90
_cell_volume                             122.3
_cell_formula_units_Z                    1
_space_group_IT_number                   123
_space_group_name_H-M_alt                'P 4/m m m'
loop_
 _space_group_symop_id
 _space_group_symop_operation_xyz
 1 'x, y, z'
 2 '-x, -y, -z'
 3 '-x, -y, z'
 4 '-x, y, -z'
 5 '-x, y, z'
 6 '-y, -x, -z'
 7 '-y, -x, z'
 8 '-y, x, -z'
 9 '-y, x, z'
 10 'x, -y, -z'
 11 'x, -y, z'
 12 'x, y, -z'
 13 'y, -x, -z'
 14 'y, -x, z'
 15 'y, x, -z'
 16 'y, x, z'

# Atomic positions taken from type-defining entry

loop_
 _atom_type_symbol
 Ga
 Fe
 U
loop_
 _atom_site_label
 _atom_site_type_symbol
 _atom_site_symmetry_multiplicity
 _atom_site_Wyckoff_symbol
 _atom_site_fract_x
 _atom_site_fract_y
 _atom_site_fract_z
 _atom_site_occupancy
 Ga1 Ga 4 i 0 0.5 0.312 1
 Ga2 Ga 1 c 0.5 0.5 0 1
 Fe1 Fe 1 b 0 0 0.5 1
 U1 U 1 a 0 0 0 1


_exptl_crystal_colour                    ?
_exptl_crystal_density_meas              ?
_exptl_crystal_density_diffrn            8.73
_cell_measurement_temperature            ?
_cell_measurement_radiation              'X-rays, Cu Ka'
_cell_measurement_reflns_used            ?
_diffrn_ambient_temperature              ?
_diffrn_measurement_device               'automatic diffractometer'
_diffrn_measurement_device_type          ?
_diffrn_radiation_type                   ?
_diffrn_reflns_number                    ?
_exptl_absorpt_coefficient_mu            ?
_exptl_absorpt_correction_type           ?
_computing_structure_solution            ?
_refine_ls_number_parameters             ?
_refine_ls_number_reflns                 ?
_refine_ls_R_factor_gt                   ?
_refine_ls_wR_factor_gt                  ?

# End of data set 535525

