##############################################################################
#                                                                            #
# In-Ni-Tm         # Tm2Ni2In                                      #  536129 #
#                                                                            #
##############################################################################
#                                                                            #
#                           Pearson's Crystal Data                           #
#      Crystal Structure Database for Inorganic Compounds (on DVD)           #
#                              Release 2023/24                               #
#                  Editors: Pierre Villars and Karin Cenzual                 #
#                                                                            #
#   Copyright (c) ASM International & Material Phases Data System (MPDS),    #
# Switzerland & National Institute for Materials Science (NIMS), Japan, 2023 #
#                   All rights reserved. Version 2023.07                     #
#                                                                            #
#   This copy of Pearson's Crystal Data is licensed to:                      #
#   Hunter College - City University of New York                             #
#                                                                            #
##############################################################################

data_536129
_audit_creation_date                     2024-02-25
_audit_creation_method
;
Pearson's Crystal Data browser
;
#_database_code_PCD                      536129
_database_code_PDF                       04-005-0094

# Entry summary

_chemical_formula_structural             'Tm~2~ Ni~2~ In'
_chemical_formula_sum                    'In Ni2 Tm2'
_chemical_name_mineral                   ?
_chemical_compound_source                ?
_chemical_name_structure_type            Mn~2~AlB~2~,oS10,65
_chemical_formula_weight                 570.1

# Bibliographic data

_publ_section_title
;
Crystal structure of the compounds R~2~Ni~2~In, R~2~Ni~2-x~In and R~2~Cu~2~In (R= La, Ce, Pr, Nd, Sm, Gd, Tb, Dy, Ho, Er, Tm, Lu, Y)
;
_journal_coden_ASTM                      INOMAF
_journal_name_full                       'Inorg. Mater.'
_journal_year                            1990
_journal_volume                          26
_journal_page_first                      74
_journal_page_last                       76
_journal_language                        English
loop_
 _publ_author_name
 _publ_author_address
'Kalychak Y.M.'
;
Lviv Ivan Franko State University
Department of Inorganic Chemistry
Lviv
Ukraine
;
'Zaremba V.I.'
;
Lviv Ivan Franko State University
Lviv
Ukraine
;
'Baranyak V.M.'
;
Lviv Ivan Franko State University
Lviv
Ukraine
;
'Zavalii P.Y.'
;
Lviv Ivan Franko State University
Department of Inorganic Chemistry
Lviv
Ukraine
;
'Bruskov V.A.'
;
Lviv Ivan Franko State University
Lviv
Ukraine
;
'Sysa L.V.'
;
Lviv Ivan Franko State University
Lviv
Ukraine
;
'Dmytrakh O.V.'
;
Lviv Ivan Franko State University
Lviv
Ukraine
;

# Standardized crystallographic data

_cell_length_a                           3.886
_cell_length_b                           14.041
_cell_length_c                           3.613
_cell_angle_alpha                        90
_cell_angle_beta                         90
_cell_angle_gamma                        90
_cell_volume                             197.1
_cell_formula_units_Z                    2
_space_group_IT_number                   65
_space_group_name_H-M_alt                'C m m m'
loop_
 _space_group_symop_id
 _space_group_symop_operation_xyz
 1 'x, y, z'
 2 '-x, -y, -z'
 3 '-x, -y, z'
 4 '-x, y, -z'
 5 '-x, y, z'
 6 'x, -y, -z'
 7 'x, -y, z'
 8 'x, y, -z'
 9 '1/2+x, 1/2+y, z'
 10 '1/2-x, 1/2-y, -z'
 11 '1/2-x, 1/2-y, z'
 12 '1/2-x, 1/2+y, -z'
 13 '1/2-x, 1/2+y, z'
 14 '1/2+x, 1/2-y, -z'
 15 '1/2+x, 1/2-y, z'
 16 '1/2+x, 1/2+y, -z'

# Atomic positions taken from type-defining entry

loop_
 _atom_type_symbol
 Tm
 Ni
 In
loop_
 _atom_site_label
 _atom_site_type_symbol
 _atom_site_symmetry_multiplicity
 _atom_site_Wyckoff_symbol
 _atom_site_fract_x
 _atom_site_fract_y
 _atom_site_fract_z
 _atom_site_occupancy
 Tm1 Tm 4 j 0 0.355 0.5 1
 Ni1 Ni 4 i 0 0.209 0 1
 In1 In 2 a 0 0 0 1


_exptl_crystal_colour                    ?
_exptl_crystal_density_meas              ?
_exptl_crystal_density_diffrn            9.60
_cell_measurement_temperature            ?
_cell_measurement_radiation              'X-rays, Cu Ka'
_cell_measurement_reflns_used            ?
_diffrn_ambient_temperature              ?
_diffrn_measurement_device               'automatic diffractometer'
_diffrn_measurement_device_type          ?
_diffrn_radiation_type                   ?
_diffrn_reflns_number                    ?
_exptl_absorpt_coefficient_mu            ?
_exptl_absorpt_correction_type           ?
_computing_structure_solution            ?
_refine_ls_number_parameters             ?
_refine_ls_number_reflns                 ?
_refine_ls_R_factor_gt                   ?
_refine_ls_wR_factor_gt                  ?

# End of data set 536129

