##############################################################################
#                                                                            #
# Fe-Ge-Tb         # TbFe2Ge2                                      #  537394 #
#                                                                            #
##############################################################################
#                                                                            #
#                           Pearson's Crystal Data                           #
#      Crystal Structure Database for Inorganic Compounds (on DVD)           #
#                              Release 2023/24                               #
#                  Editors: Pierre Villars and Karin Cenzual                 #
#                                                                            #
#   Copyright (c) ASM International & Material Phases Data System (MPDS),    #
# Switzerland & National Institute for Materials Science (NIMS), Japan, 2023 #
#                   All rights reserved. Version 2023.07                     #
#                                                                            #
#   This copy of Pearson's Crystal Data is licensed to:                      #
#   Hunter College - City University of New York                             #
#                                                                            #
##############################################################################

data_537394
_audit_creation_date                     2024-02-24
_audit_creation_method
;
Pearson's Crystal Data browser
;
#_database_code_PCD                      537394
_database_code_PDF                       04-005-1194

# Entry summary

_chemical_formula_structural             'Tb Fe~2~ Ge~2~'
_chemical_formula_sum                    'Fe2 Ge2 Tb'
_chemical_name_mineral                   ?
_chemical_compound_source                ?
_chemical_name_structure_type            CeAl~2~Ga~2~,tI10,139
_chemical_formula_weight                 415.8

# Bibliographic data

_publ_section_title
'Magnetic properties of TbFe~2~Si~2~ and TbFe~2~Ge~2~'                        
_journal_coden_ASTM                      JMMMDC
_journal_name_full                       'J. Magn. Magn. Mater.'
_journal_year                            1988
_journal_volume                          72
_journal_page_first                      85
_journal_page_last                       87
_journal_language                        English
loop_
 _publ_author_name
 _publ_author_address
'Bazela W.'
;
Cracow Tadeusz Kosciuszko University of Technology (PK)
Institute of Physics
Cracow
Poland
;
'Leciejewicz J.'
;
Warsaw University of Technology (PW)
Institute of Nuclear Chemistry and Technology
Warsaw
Poland
;
'Ptasiewicz Bak H.'
;
Institute of Atomic Energy
Swierk-Otwock
Poland
;
'Szytula A.'
;
Jagiellonian University
M. Smoluchowski Institute of Physics
Cracow
Poland
;

# Standardized crystallographic data

_cell_length_a                           3.966
_cell_length_b                           3.966
_cell_length_c                           10.384
_cell_angle_alpha                        90
_cell_angle_beta                         90
_cell_angle_gamma                        90
_cell_volume                             163.3
_cell_formula_units_Z                    2
_space_group_IT_number                   139
_space_group_name_H-M_alt                'I 4/m m m'
loop_
 _space_group_symop_id
 _space_group_symop_operation_xyz
 1 'x, y, z'
 2 '-x, -y, -z'
 3 '-x, -y, z'
 4 '-x, y, -z'
 5 '-x, y, z'
 6 '-y, -x, -z'
 7 '-y, -x, z'
 8 '-y, x, -z'
 9 '-y, x, z'
 10 'x, -y, -z'
 11 'x, -y, z'
 12 'x, y, -z'
 13 'y, -x, -z'
 14 'y, -x, z'
 15 'y, x, -z'
 16 'y, x, z'
 17 '1/2+x, 1/2+y, 1/2+z'
 18 '1/2-x, 1/2-y, 1/2-z'
 19 '1/2-x, 1/2-y, 1/2+z'
 20 '1/2-x, 1/2+y, 1/2-z'
 21 '1/2-x, 1/2+y, 1/2+z'
 22 '1/2-y, 1/2-x, 1/2-z'
 23 '1/2-y, 1/2-x, 1/2+z'
 24 '1/2-y, 1/2+x, 1/2-z'
 25 '1/2-y, 1/2+x, 1/2+z'
 26 '1/2+x, 1/2-y, 1/2-z'
 27 '1/2+x, 1/2-y, 1/2+z'
 28 '1/2+x, 1/2+y, 1/2-z'
 29 '1/2+y, 1/2-x, 1/2-z'
 30 '1/2+y, 1/2-x, 1/2+z'
 31 '1/2+y, 1/2+x, 1/2-z'
 32 '1/2+y, 1/2+x, 1/2+z'
loop_
 _atom_type_symbol
 Ge
 Fe
 Tb
loop_
 _atom_site_label
 _atom_site_type_symbol
 _atom_site_symmetry_multiplicity
 _atom_site_Wyckoff_symbol
 _atom_site_fract_x
 _atom_site_fract_y
 _atom_site_fract_z
 _atom_site_occupancy
 Ge Ge 4 e 0 0 0.3826 1
 Fe Fe 4 d 0 0.5 0.25 1
 Tb Tb 2 a 0 0 0 1


_exptl_crystal_colour                    ?
_exptl_crystal_density_meas              ?
_exptl_crystal_density_diffrn            8.45
_cell_measurement_temperature            1.8
_cell_measurement_radiation              neutrons
_cell_measurement_wavelength             1.326
_pd_proc_wavelength                      1.326
_cell_measurement_reflns_used            ?
_diffrn_ambient_temperature              1.8
_diffrn_measurement_device               'automatic diffractometer'
_diffrn_measurement_device_type
'Poland, Swierk, Institute of Nuclear Research, EWA reactor, DN-500'          
_diffrn_radiation_type                   neutrons
_diffrn_radiation_wavelength             1.326
_diffrn_reflns_number                    ?
_exptl_absorpt_coefficient_mu            ?
_exptl_absorpt_correction_type           ?
_computing_structure_solution            'starting values from the literature'
_refine_ls_number_parameters             ?
_refine_ls_number_reflns                 ?
_refine_ls_R_factor_gt                   ?
_refine_ls_wR_factor_gt                  ?
_pd_proc_ls_proof_R_factor               ?
_pd_proc_ls_proof_wR_factor              ?
_refine_ls_R_I_factor                    ?

# End of data set 537394

