##############################################################################
#                                                                            #
# Co-Sn-Th         # ThCoSn                                        #  537551 #
#                                                                            #
##############################################################################
#                                                                            #
#                           Pearson's Crystal Data                           #
#      Crystal Structure Database for Inorganic Compounds (on DVD)           #
#                              Release 2023/24                               #
#                  Editors: Pierre Villars and Karin Cenzual                 #
#                                                                            #
#   Copyright (c) ASM International & Material Phases Data System (MPDS),    #
# Switzerland & National Institute for Materials Science (NIMS), Japan, 2023 #
#                   All rights reserved. Version 2023.07                     #
#                                                                            #
#   This copy of Pearson's Crystal Data is licensed to:                      #
#   Hunter College - City University of New York                             #
#                                                                            #
##############################################################################

data_537551
_audit_creation_date                     2024-02-24
_audit_creation_method
;
Pearson's Crystal Data browser
;
#_database_code_PCD                      537551
_database_code_PDF                       04-005-1350

# Entry summary

_chemical_formula_structural             'Th Co Sn'
_chemical_formula_sum                    'Co Sn Th'
_chemical_name_mineral                   ?
_chemical_compound_source                ?
_chemical_name_structure_type            ZrNiAl,hP9,189
_chemical_formula_weight                 409.7

# Bibliographic data

_publ_section_title
'Magnetic and electrical properties of several equiatomic ternary U-compounds'
_journal_coden_ASTM                      JMMMDC
_journal_name_full                       'J. Magn. Magn. Mater.'
_journal_year                            1987
_journal_volume                          67
_journal_page_first                      331
_journal_page_last                       342
_journal_language                        English
loop_
 _publ_author_name
 _publ_author_address
'Palstra T.T.M.'
;
Leiden University
Kamerlingh Onnes Laboratory
Leiden
Netherlands
;
'Nieuwenhuys G.J.'
;
Leiden University
Kamerlingh Onnes Laboratory
Leiden
Netherlands
;
'Vlastuin R.F.M.'
;
Leiden University
Kamerlingh Onnes Laboratory
Leiden
Netherlands
;
'Van Den Berg J.M.'
;
Leiden University
Kamerlingh Onnes Laboratory
Leiden
Netherlands
;
'Mydosh J.A.'
;
Leiden University
Kamerlingh Onnes Laboratory
Leiden
Netherlands
;
'Buschow K.H.J.'
;
Philips Research Laboratories
Eindhoven
Netherlands
;

# Standardized crystallographic data

_cell_length_a                           7.383
_cell_length_b                           7.383
_cell_length_c                           4.057
_cell_angle_alpha                        90
_cell_angle_beta                         90
_cell_angle_gamma                        120
_cell_volume                             191.5
_cell_formula_units_Z                    3
_space_group_IT_number                   189
_space_group_name_H-M_alt                'P -6 2 m'
loop_
 _space_group_symop_id
 _space_group_symop_operation_xyz
 1 'x, y, z'
 2 '-x+y, -x, -z'
 3 '-x+y, -x, z'
 4 '-x, -x+y, -z'
 5 '-x, -x+y, z'
 6 '-y, x-y, -z'
 7 '-y, x-y, z'
 8 'x, y, -z'
 9 'x-y, -y, -z'
 10 'x-y, -y, z'
 11 'y, x, -z'
 12 'y, x, z'

# Atomic positions taken from type-defining entry

loop_
 _atom_type_symbol
 Sn
 Th
 Co
loop_
 _atom_site_label
 _atom_site_type_symbol
 _atom_site_symmetry_multiplicity
 _atom_site_Wyckoff_symbol
 _atom_site_fract_x
 _atom_site_fract_y
 _atom_site_fract_z
 _atom_site_occupancy
 Sn1 Sn 3 g 0.2505 0 0.5 1
 Th1 Th 3 f 0.5925 0 0 1
 Co1 Co 2 d 0.333333 0.666667 0.5 1
 Co2 Co 1 a 0 0 0 1


_exptl_crystal_colour                    ?
_exptl_crystal_density_meas              ?
_exptl_crystal_density_diffrn            10.66
_cell_measurement_temperature            ?
_cell_measurement_radiation              X-rays
_cell_measurement_reflns_used            ?
_diffrn_ambient_temperature              ?
_diffrn_measurement_device               'automatic diffractometer'
_diffrn_measurement_device_type          ?
_diffrn_radiation_type                   ?
_diffrn_reflns_number                    ?
_exptl_absorpt_coefficient_mu            ?
_exptl_absorpt_correction_type           ?
_computing_structure_solution            ?
_refine_ls_number_parameters             ?
_refine_ls_number_reflns                 ?
_refine_ls_R_factor_gt                   ?
_refine_ls_wR_factor_gt                  ?

# End of data set 537551

