##############################################################################
#                                                                            #
# Ce-Ni-Sn         # CeNiSn                                        #  537887 #
#                                                                            #
##############################################################################
#                                                                            #
#                           Pearson's Crystal Data                           #
#      Crystal Structure Database for Inorganic Compounds (on DVD)           #
#                              Release 2023/24                               #
#                  Editors: Pierre Villars and Karin Cenzual                 #
#                                                                            #
#   Copyright (c) ASM International & Material Phases Data System (MPDS),    #
# Switzerland & National Institute for Materials Science (NIMS), Japan, 2023 #
#                   All rights reserved. Version 2023.07                     #
#                                                                            #
#   This copy of Pearson's Crystal Data is licensed to:                      #
#   Hunter College - City University of New York                             #
#                                                                            #
##############################################################################

data_537887
_audit_creation_date                     2024-02-24
_audit_creation_method
;
Pearson's Crystal Data browser
;
#_database_code_PCD                      537887
_database_code_PDF                       04-005-1645

# Entry summary

_chemical_formula_structural             'Ce Ni Sn'
_chemical_formula_sum                    'Ce Ni Sn'
_chemical_name_mineral                   ?
_chemical_compound_source                ?
_chemical_name_structure_type            TiNiSi,oP12,62
_chemical_formula_weight                 317.5

# Bibliographic data

_publ_section_title
;
Crystal structure and magnetic susceptibility of the compounds RNiSn (R= rare-earth metals)
;
_journal_coden_ASTM                      INOMAF
_journal_name_full                       'Inorg. Mater.'
_journal_year                            1984
_journal_volume                          20
_journal_page_first                      520
_journal_page_last                       523
_journal_language                        English
loop_
 _publ_author_name
 _publ_author_address
'Skolozdra R.V.'
;
Lviv Ivan Franko State University
Department of Inorganic Chemistry
Lviv
Ukraine
;
'Koretskaya O.E.'
;
Lviv Ivan Franko State University
Lviv
Ukraine
;
'Gorelenko Y.K.'
;
Lviv Ivan Franko State University
Department of Inorganic Chemistry
Lviv
Ukraine
;

# Standardized crystallographic data

_cell_length_a                           7.523
_cell_length_b                           4.592
_cell_length_c                           7.561
_cell_angle_alpha                        90
_cell_angle_beta                         90
_cell_angle_gamma                        90
_cell_volume                             261.2
_cell_formula_units_Z                    4
_space_group_IT_number                   62
_space_group_name_H-M_alt                'P n m a'
loop_
 _space_group_symop_id
 _space_group_symop_operation_xyz
 1 'x, y, z'
 2 '1/2-x, -y, 1/2+z'
 3 '1/2-x, 1/2+y, 1/2+z'
 4 '-x, -y, -z'
 5 '-x, 1/2+y, -z'
 6 '1/2+x, 1/2-y, 1/2-z'
 7 '1/2+x, y, 1/2-z'
 8 'x, 1/2-y, z'
loop_
 _atom_type_symbol
 Ce
 Sn
 Ni
loop_
 _atom_site_label
 _atom_site_type_symbol
 _atom_site_symmetry_multiplicity
 _atom_site_Wyckoff_symbol
 _atom_site_fract_x
 _atom_site_fract_y
 _atom_site_fract_z
 _atom_site_occupancy
 Ce Ce 4 c 0.0115 0.25 0.6922 1
 Sn Sn 4 c 0.1959 0.25 0.0691 1
 Ni Ni 4 c 0.3139 0.25 0.3903 1


_exptl_crystal_colour                    ?
_exptl_crystal_density_meas              ?
_exptl_crystal_density_diffrn            8.07
_cell_measurement_temperature            ?
_cell_measurement_radiation              'X-rays, Fe Ka'
_cell_measurement_reflns_used            ?
_diffrn_ambient_temperature              ?
_diffrn_measurement_device               'automatic diffractometer'
_diffrn_measurement_device_type          DRON-2
_diffrn_radiation_type                   'X-rays, Fe Ka'
_diffrn_reflns_number                    ?
_exptl_absorpt_coefficient_mu            ?
_exptl_absorpt_correction_type           ?
_computing_structure_solution            'starting values from the literature'
_refine_ls_number_parameters             ?
_refine_ls_number_reflns                 ?
_refine_ls_R_factor_gt                   0.129
_refine_ls_wR_factor_gt                  ?
_pd_proc_ls_proof_R_factor               ?
_pd_proc_ls_proof_wR_factor              ?
_refine_ls_R_I_factor                    ?

# Published diffraction lines

loop_
 _refln_index_h
 _refln_index_k
 _refln_index_l
 _refln_d_spacing
 _refln_intensity_meas
 1 1 1 3.47 42
 1 0 2 3.38 20
 2 1 0 2.9 25
 1 1 2 2.71 770
 1 0 3 2.38 208
 2 1 2 2.29 198
 0 1 3 2.21 176
 1 1 3 2.1 5
 2 1 3 1.904 42
 4 0 0 1.88 21
 1 0 4 1.824 20
 3 0 3 1.782 28
 4 1 0 1.74 73
 1 1 4 1.697 74
 3 1 3 1.656 122
 2 1 4 1.584 37
 2 2 3 1.547 4
 3 0 4 1.506 7
 1 0 5 1.478 42
 0 2 4 1.458 7
 4 2 0 1.438 200
 3 2 3 1.408 15
 5 0 2 1.394 114
 2 2 4 1.36 9
 2 1 5 1.339 104
 0 3 3 1.31 44
 3 0 5 1.293 5

# End of data set 537887

