##############################################################################
#                                                                            #
# Fe-Lu-Si         # LuFe0.5Si2                                    #  537926 #
#                                                                            #
##############################################################################
#                                                                            #
#                           Pearson's Crystal Data                           #
#      Crystal Structure Database for Inorganic Compounds (on DVD)           #
#                              Release 2023/24                               #
#                  Editors: Pierre Villars and Karin Cenzual                 #
#                                                                            #
#   Copyright (c) ASM International & Material Phases Data System (MPDS),    #
# Switzerland & National Institute for Materials Science (NIMS), Japan, 2023 #
#                   All rights reserved. Version 2023.07                     #
#                                                                            #
#   This copy of Pearson's Crystal Data is licensed to:                      #
#   Hunter College - City University of New York                             #
#                                                                            #
##############################################################################

data_537926
_audit_creation_date                     2024-02-24
_audit_creation_method
;
Pearson's Crystal Data browser
;
#_database_code_PCD                      537926
_database_code_PDF                       04-005-1678

# Entry summary

_chemical_formula_structural             'Lu Fe~0.33~ Si~2~'
_chemical_formula_sum                    'Fe0.28 Lu Si2'
_chemical_name_mineral                   ?
_chemical_compound_source                ?
_chemical_name_structure_type            CeNiSi~2~,oS16,63
_chemical_formula_weight                 249.6

# Bibliographic data

_publ_section_title
'Crystal structure of the compound Lu~3~FeSi~6~'                              
_journal_coden_ASTM                      INOMAF
_journal_name_full                       'Inorg. Mater.'
_journal_year                            1986
_journal_volume                          22
_journal_page_first                      1685
_journal_page_last                       1687
_journal_language                        English
loop_
 _publ_author_name
 _publ_author_address
'Krivulya L.V.'
;
Lviv Ivan Franko State University
Lviv
Ukraine
;
'Bodak O.I.'
;
Lviv Ivan Franko State University
Department of Inorganic Chemistry
Lviv
Ukraine
;
'Gorelenko Y.K.'
;
Lviv Ivan Franko State University
Department of Inorganic Chemistry
Lviv
Ukraine
;

# Standardized crystallographic data

_cell_length_a                           3.939
_cell_length_b                           15.259
_cell_length_c                           3.823
_cell_angle_alpha                        90
_cell_angle_beta                         90
_cell_angle_gamma                        90
_cell_volume                             229.8
_cell_formula_units_Z                    4
_space_group_IT_number                   63
_space_group_name_H-M_alt                'C m c m'
loop_
 _space_group_symop_id
 _space_group_symop_operation_xyz
 1 'x, y, z'
 2 '-x, -y, -z'
 3 '-x, -y, 1/2+z'
 4 '-x, y, 1/2-z'
 5 '-x, y, z'
 6 'x, -y, -z'
 7 'x, -y, 1/2+z'
 8 'x, y, 1/2-z'
 9 '1/2+x, 1/2+y, z'
 10 '1/2-x, 1/2-y, -z'
 11 '1/2-x, 1/2-y, 1/2+z'
 12 '1/2-x, 1/2+y, 1/2-z'
 13 '1/2-x, 1/2+y, z'
 14 '1/2+x, 1/2-y, -z'
 15 '1/2+x, 1/2-y, 1/2+z'
 16 '1/2+x, 1/2+y, 1/2-z'
loop_
 _atom_type_symbol
 Si
 Fe
 Lu
loop_
 _atom_site_label
 _atom_site_type_symbol
 _atom_site_symmetry_multiplicity
 _atom_site_Wyckoff_symbol
 _atom_site_fract_x
 _atom_site_fract_y
 _atom_site_fract_z
 _atom_site_occupancy
 Si(1) Si 4 c 0 0.053 0.25 1
 Fe Fe 4 c 0 0.202 0.25 0.28
 Lu Lu 4 c 0 0.4 0.25 1
 Si(2) Si 4 c 0 0.755 0.25 1


_exptl_crystal_colour                    ?
_exptl_crystal_density_meas              ?
_exptl_crystal_density_diffrn            7.21
_cell_measurement_temperature            ?
_cell_measurement_radiation              'X-rays, Fe Ka'
_cell_measurement_reflns_used            ?
_diffrn_ambient_temperature              ?
_diffrn_measurement_device               'automatic diffractometer'
_diffrn_measurement_device_type          DRON-2
_diffrn_radiation_type                   'X-rays, Fe Ka'
_diffrn_reflns_number                    ?
_exptl_absorpt_coefficient_mu            ?
_exptl_absorpt_correction_type           ?
_computing_structure_solution            'starting values from the literature'
_refine_ls_number_parameters             ?
_refine_ls_number_reflns                 ?
_refine_ls_R_factor_gt                   0.126
_refine_ls_wR_factor_gt                  ?
_pd_proc_ls_proof_R_factor               ?
_pd_proc_ls_proof_wR_factor              ?
_refine_ls_R_I_factor                    ?

# Published diffraction lines

loop_
 _refln_index_h
 _refln_index_k
 _refln_index_l
 _refln_d_spacing
 _refln_intensity_meas
 0 4 0 3.817 395
 0 2 1 3.42 377
 1 3 0 3.11 65
 0 4 1 2.7 272
 0 6 0 2.54 230
 1 3 1 2.42 1000
 0 6 1 2.12 174
 1 5 1 1.97 103
 0 0 2 1.911 112
 0 2 2 1.853 5
 2 4 0 1.75 33
 1 1 2 1.707 352
 1 3 2 1.626 17
 2 4 1 1.589 28
 1 9 0 1.558 92
 0 6 2 1.526 82
 2 0 2 1.37 71
 1 7 2 1.349 10
 1 11 0 1.3 33
 2 4 2 1.29 81
 1 1 3 1.207 346
 1 3 3 1.179 92

# End of data set 537926

