##############################################################################
#                                                                            #
# Rh-Si-Tb         # TbRhSi                                        #  538247 #
#                                                                            #
##############################################################################
#                                                                            #
#                           Pearson's Crystal Data                           #
#      Crystal Structure Database for Inorganic Compounds (on DVD)           #
#                              Release 2023/24                               #
#                  Editors: Pierre Villars and Karin Cenzual                 #
#                                                                            #
#   Copyright (c) ASM International & Material Phases Data System (MPDS),    #
# Switzerland & National Institute for Materials Science (NIMS), Japan, 2023 #
#                   All rights reserved. Version 2023.07                     #
#                                                                            #
#   This copy of Pearson's Crystal Data is licensed to:                      #
#   Hunter College - City University of New York                             #
#                                                                            #
##############################################################################

data_538247
_audit_creation_date                     2024-02-25
_audit_creation_method
;
Pearson's Crystal Data browser
;
#_database_code_PCD                      538247
_database_code_PDF                       04-005-1951

# Entry summary

_chemical_formula_structural             'Tb Rh Si'
_chemical_formula_sum                    'Rh Si Tb'
_chemical_name_mineral                   ?
_chemical_compound_source                ?
_chemical_name_structure_type            TiNiSi,oP12,62
_chemical_formula_weight                 289.9

# Bibliographic data

_publ_section_title
'Magnetic structures of RERhSi (RE= Tb, Ho, Er) compounds'                    
_journal_coden_ASTM                      JMMMDC
_journal_name_full                       'J. Magn. Magn. Mater.'
_journal_year                            1985
_journal_volume                          50
_journal_page_first                      19
_journal_page_last                       26
_journal_language                        English
loop_
 _publ_author_name
 _publ_author_address
'Bazela W.'
;
Cracow Tadeusz Kosciuszko University of Technology (PK)
Institute of Physics
Cracow
Poland
;
'Leciejewicz J.'
;
Warsaw University of Technology (PW)
Institute of Nuclear Chemistry and Technology
Warsaw
Poland
;
'Szytula A.'
;
Jagiellonian University
M. Smoluchowski Institute of Physics
Cracow
Poland
;

# Standardized crystallographic data

_cell_length_a                           6.902
_cell_length_b                           4.244
_cell_length_c                           7.367
_cell_angle_alpha                        90
_cell_angle_beta                         90
_cell_angle_gamma                        90
_cell_volume                             215.79
_cell_formula_units_Z                    4
_space_group_IT_number                   62
_space_group_name_H-M_alt                'P n m a'
loop_
 _space_group_symop_id
 _space_group_symop_operation_xyz
 1 'x, y, z'
 2 '1/2-x, -y, 1/2+z'
 3 '1/2-x, 1/2+y, 1/2+z'
 4 '-x, -y, -z'
 5 '-x, 1/2+y, -z'
 6 '1/2+x, 1/2-y, 1/2-z'
 7 '1/2+x, y, 1/2-z'
 8 'x, 1/2-y, z'
loop_
 _atom_type_symbol
 Tb
 Si
 Rh
loop_
 _atom_site_label
 _atom_site_type_symbol
 _atom_site_symmetry_multiplicity
 _atom_site_Wyckoff_symbol
 _atom_site_fract_x
 _atom_site_fract_y
 _atom_site_fract_z
 _atom_site_occupancy
 Tb Tb 4 c -0.027 0.25 0.68894 1
 Si Si 4 c 0.151 0.25 0.054 1
 Rh Rh 4 c 0.311 0.25 0.404 1


_exptl_crystal_colour                    ?
_exptl_crystal_density_meas              ?
_exptl_crystal_density_diffrn            8.92
_cell_measurement_temperature            4.2
_cell_measurement_radiation              neutrons
_cell_measurement_wavelength             1.326
_pd_proc_wavelength                      1.326
_cell_measurement_reflns_used            ?
_diffrn_ambient_temperature              4.2
_diffrn_measurement_device               'automatic diffractometer'
_diffrn_measurement_device_type
'Poland, Swierk, Institute of Nuclear Research, EWA reactor, DN-500'          
_diffrn_radiation_type                   neutrons
_diffrn_radiation_wavelength             1.326
_diffrn_reflns_number                    ?
_exptl_absorpt_coefficient_mu            ?
_exptl_absorpt_correction_type           ?
_computing_structure_solution            'starting values from the literature'
_refine_ls_number_parameters             ?
_refine_ls_number_reflns                 ?
_refine_ls_R_factor_gt                   ?
_refine_ls_wR_factor_gt                  ?
_pd_proc_ls_proof_R_factor               ?
_pd_proc_ls_proof_wR_factor              ?
_refine_ls_R_I_factor                    ?

# End of data set 538247

