##############################################################################
#                                                                            #
# Co-Ga-Tb         # TbCo3Ga2                                      #  538540 #
#                                                                            #
##############################################################################
#                                                                            #
#                           Pearson's Crystal Data                           #
#      Crystal Structure Database for Inorganic Compounds (on DVD)           #
#                              Release 2023/24                               #
#                  Editors: Pierre Villars and Karin Cenzual                 #
#                                                                            #
#   Copyright (c) ASM International & Material Phases Data System (MPDS),    #
# Switzerland & National Institute for Materials Science (NIMS), Japan, 2023 #
#                   All rights reserved. Version 2023.07                     #
#                                                                            #
#   This copy of Pearson's Crystal Data is licensed to:                      #
#   Hunter College - City University of New York                             #
#                                                                            #
##############################################################################

data_538540
_audit_creation_date                     2024-02-24
_audit_creation_method
;
Pearson's Crystal Data browser
;
#_database_code_PCD                      538540
_database_code_PDF                       04-005-2219

# Entry summary

_chemical_formula_structural             'Tb Co~3~ Ga~2~'
_chemical_formula_sum                    'Tb Co3 Ga2'
_chemical_name_mineral                   ?
_chemical_compound_source                ?
_chemical_name_structure_type            YCo~3~Ga~2~,hP18,191
_chemical_formula_weight                 475.2

# Bibliographic data

_publ_section_title
'Unusual magnetic transitions in a new ternary compound: TbCo~3~Ga~2~'        
_journal_coden_ASTM                      JMMMDC
_journal_name_full                       'J. Magn. Magn. Mater.'
_journal_year                            1989
_journal_volume                          81
_journal_page_first                      179
_journal_page_last                       183
_journal_language                        English
loop_
 _publ_author_name
 _publ_author_address
'Felner I.'
;
Jerusalem Hebrew University (HUJI)
Racah Institute of Physics
Jerusalem
Israel
;
'Grayevsky A.'
;
Jerusalem Hebrew University (HUJI)
Racah Institute of Physics
Jerusalem
Israel
;
'Kaplan N.'
;
Jerusalem Hebrew University (HUJI)
Racah Institute of Physics
Jerusalem
Israel
;

# Standardized crystallographic data

_cell_length_a                           8.813
_cell_length_b                           8.813
_cell_length_c                           4.063
_cell_angle_alpha                        90
_cell_angle_beta                         90
_cell_angle_gamma                        120
_cell_volume                             273.3
_cell_formula_units_Z                    3
_space_group_IT_number                   191
_space_group_name_H-M_alt                'P 6/m m m'
loop_
 _space_group_symop_id
 _space_group_symop_operation_xyz
 1 'x, y, z'
 2 '-x+y, -x, -z'
 3 '-x+y, -x, z'
 4 '-x+y, y, -z'
 5 '-x+y, y, z'
 6 '-x, -x+y, -z'
 7 '-x, -x+y, z'
 8 '-x, -y, -z'
 9 '-x, -y, z'
 10 '-y, -x, -z'
 11 '-y, -x, z'
 12 '-y, x-y, -z'
 13 '-y, x-y, z'
 14 'x, x-y, -z'
 15 'x, x-y, z'
 16 'x, y, -z'
 17 'x-y, -y, -z'
 18 'x-y, -y, z'
 19 'x-y, x, -z'
 20 'x-y, x, z'
 21 'y, -x+y, -z'
 22 'y, -x+y, z'
 23 'y, x, -z'
 24 'y, x, z'

# Atomic positions taken from type-defining entry

loop_
 _atom_type_symbol
 Co
 Ga
 Tb
loop_
 _atom_site_label
 _atom_site_type_symbol
 _atom_site_symmetry_multiplicity
 _atom_site_Wyckoff_symbol
 _atom_site_fract_x
 _atom_site_fract_y
 _atom_site_fract_z
 _atom_site_occupancy
 Co1 Co 6 l 0.1799 0.3598 0 1
 Ga1 Ga 6 k 0.2895 0 0.5 1
 Co2 Co 3 f 0.5 0 0 1
 Tb1 Tb 2 d 0.333333 0.666667 0.5 1
 Tb2 Tb 1 a 0 0 0 1


_exptl_crystal_colour                    ?
_exptl_crystal_density_meas              ?
_exptl_crystal_density_diffrn            8.66
_cell_measurement_temperature            ?
_cell_measurement_radiation              X-rays
_cell_measurement_reflns_used            ?
_diffrn_ambient_temperature              ?
_diffrn_measurement_device               film
_diffrn_measurement_device_type          ?
_diffrn_radiation_type                   X-rays
_diffrn_reflns_number                    ?
_exptl_absorpt_coefficient_mu            ?
_exptl_absorpt_correction_type           ?
_computing_structure_solution            'starting values from the literature'
_refine_ls_number_parameters             ?
_refine_ls_number_reflns                 ?
_refine_ls_R_factor_gt                   ?
_refine_ls_wR_factor_gt                  ?
_pd_proc_ls_proof_R_factor               ?
_pd_proc_ls_proof_wR_factor              ?
_refine_ls_R_I_factor                    ?

# Published diffraction lines

loop_
 _refln_index_h
 _refln_index_k
 _refln_index_l
 _refln_d_spacing
 _refln_intensity_meas
 1 1 0 4.405 2
 0 0 1 4.063 3
 2 0 0 3.815 3
 1 1 1 2.986 30
 2 0 1 2.781 55
 3 0 0 2.586 15
 3 0 0 2.543 50
 2 1 1 2.351 55
 2 2 0 2.202 48
 3 0 1 2.155 100
 0 0 2 2.032 58
 2 2 1 1.936 43
 4 0 0 1.907 7
 2 0 2 1.793 2
 3 2 0 1.75 7
 4 1 0 1.665 4
 3 2 1 1.608 10
 3 0 2 1.587 17
 4 1 1 1.541 10
 2 2 2 1.493 25
 3 3 0 1.468 7
 3 1 2 1.465 9
 5 0 1 1.429 15
 4 0 2 1.39 5
 3 3 1 1.38 15
 4 2 1 1.359 12
 3 2 2 1.326 3
 5 1 1 1.298 15
 6 0 0 1.271 15

# End of data set 538540

