##############################################################################
#                                                                            #
# Co-Si-Tb         # TbCoSi2                                       #  538512 #
#                                                                            #
##############################################################################
#                                                                            #
#                           Pearson's Crystal Data                           #
#      Crystal Structure Database for Inorganic Compounds (on DVD)           #
#                              Release 2023/24                               #
#                  Editors: Pierre Villars and Karin Cenzual                 #
#                                                                            #
#   Copyright (c) ASM International & Material Phases Data System (MPDS),    #
# Switzerland & National Institute for Materials Science (NIMS), Japan, 2023 #
#                   All rights reserved. Version 2023.07                     #
#                                                                            #
#   This copy of Pearson's Crystal Data is licensed to:                      #
#   Hunter College - City University of New York                             #
#                                                                            #
##############################################################################

data_538512
_audit_creation_date                     2024-02-24
_audit_creation_method
;
Pearson's Crystal Data browser
;
#_database_code_PCD                      538512
_database_code_PDF                       04-005-2193

# Entry summary

_chemical_formula_structural             'Tb Co Si~2~'
_chemical_formula_sum                    'Co Si2 Tb'
_chemical_name_mineral                   ?
_chemical_compound_source                ?
_chemical_name_structure_type            CeNiSi~2~,oS16,63
_chemical_formula_weight                 274.0

# Bibliographic data

_publ_section_title
'Magnetic ordering in RCoSi~2~ (R= Tb, Dy, Ho) compounds'                     
_journal_coden_ASTM                      JMMMDC
_journal_name_full                       'J. Magn. Magn. Mater.'
_journal_year                            1989
_journal_volume                          80
_journal_page_first                      189
_journal_page_last                       194
_journal_language                        English
loop_
 _publ_author_name
 _publ_author_address
'Szytula A.'
;
Jagiellonian University
M. Smoluchowski Institute of Physics
Cracow
Poland
;
'Ptasiewicz Bak H.'
;
Warsaw University of Technology (PW)
Institute of Nuclear Chemistry and Technology
Warsaw
Poland
;
'Leciejewicz J.'
;
Warsaw University of Technology (PW)
Institute of Nuclear Chemistry and Technology
Warsaw
Poland
;
'Bazela W.'
;
Cracow Tadeusz Kosciuszko University of Technology (PK)
Institute of Physics
Cracow
Poland
;

# Standardized crystallographic data

_cell_length_a                           4.041
_cell_length_b                           16.282
_cell_length_c                           3.972
_cell_angle_alpha                        90
_cell_angle_beta                         90
_cell_angle_gamma                        90
_cell_volume                             261.3
_cell_formula_units_Z                    4
_space_group_IT_number                   63
_space_group_name_H-M_alt                'C m c m'
loop_
 _space_group_symop_id
 _space_group_symop_operation_xyz
 1 'x, y, z'
 2 '-x, -y, -z'
 3 '-x, -y, 1/2+z'
 4 '-x, y, 1/2-z'
 5 '-x, y, z'
 6 'x, -y, -z'
 7 'x, -y, 1/2+z'
 8 'x, y, 1/2-z'
 9 '1/2+x, 1/2+y, z'
 10 '1/2-x, 1/2-y, -z'
 11 '1/2-x, 1/2-y, 1/2+z'
 12 '1/2-x, 1/2+y, 1/2-z'
 13 '1/2-x, 1/2+y, z'
 14 '1/2+x, 1/2-y, -z'
 15 '1/2+x, 1/2-y, 1/2+z'
 16 '1/2+x, 1/2+y, 1/2-z'
loop_
 _atom_type_symbol
 Si
 Co
 Tb
loop_
 _atom_site_label
 _atom_site_type_symbol
 _atom_site_symmetry_multiplicity
 _atom_site_Wyckoff_symbol
 _atom_site_fract_x
 _atom_site_fract_y
 _atom_site_fract_z
 _atom_site_occupancy
 Si1 Si 4 c 0 0.0544 0.25 1
 Co Co 4 c 0 0.1827 0.25 1
 Tb Tb 4 c 0 0.3883 0.25 1
 Si2 Si 4 c 0 0.7638 0.25 1


_exptl_crystal_colour                    ?
_exptl_crystal_density_meas              ?
_exptl_crystal_density_diffrn            6.96
_cell_measurement_temperature            4.2
_cell_measurement_radiation              neutrons
_cell_measurement_wavelength             1.326
_pd_proc_wavelength                      1.326
_cell_measurement_reflns_used            ?
_diffrn_ambient_temperature              4.2
_diffrn_measurement_device               'automatic diffractometer'
_diffrn_measurement_device_type
'Poland, Swierk, Institute of Nuclear Research, EWA reactor, DN-500'          
_diffrn_radiation_type                   neutrons
_diffrn_radiation_wavelength             1.326
_diffrn_reflns_number                    ?
_exptl_absorpt_coefficient_mu            ?
_exptl_absorpt_correction_type           ?
_computing_structure_solution            'starting values from the literature'
_refine_ls_number_parameters             ?
_refine_ls_number_reflns                 ?
_refine_ls_R_factor_gt                   ?
_refine_ls_wR_factor_gt                  ?
_pd_proc_ls_proof_R_factor               0.062
_pd_proc_ls_proof_wR_factor              0.143
_refine_ls_R_I_factor                    ?

# End of data set 538512

