##############################################################################
#                                                                            #
# Ir-Si-Y          # YIr2Si2 ht                                    #  538891 #
#                                                                            #
##############################################################################
#                                                                            #
#                           Pearson's Crystal Data                           #
#      Crystal Structure Database for Inorganic Compounds (on DVD)           #
#                              Release 2023/24                               #
#                  Editors: Pierre Villars and Karin Cenzual                 #
#                                                                            #
#   Copyright (c) ASM International & Material Phases Data System (MPDS),    #
# Switzerland & National Institute for Materials Science (NIMS), Japan, 2023 #
#                   All rights reserved. Version 2023.07                     #
#                                                                            #
#   This copy of Pearson's Crystal Data is licensed to:                      #
#   Hunter College - City University of New York                             #
#                                                                            #
##############################################################################

data_538891
_audit_creation_date                     2024-02-25
_audit_creation_method
;
Pearson's Crystal Data browser
;
#_database_code_PCD                      538891
_database_code_PDF                       04-005-2513

# Entry summary

_chemical_formula_structural             'Y Ir~2~ Si~2~'
_chemical_formula_sum                    'Ir2 Si2 Y'
_chemical_name_mineral                   ?
_chemical_compound_source                ?
_chemical_name_structure_type            CaBe~2~Ge~2~,tP10,129
_chemical_formula_weight                 529.5

# Bibliographic data

_publ_section_title
;
Influence of composition on the structural and superconducting properties of the two polymorphic forms of iridium- or silicon-substituted YIr~2~Si~2~
;
_journal_coden_ASTM                      JCOMAH
_journal_name_full                       'J. Less-Common Met.'
_journal_year                            1985
_journal_volume                          105
_journal_page_first                      139
_journal_page_last                       148
_journal_language                        English
loop_
 _publ_author_name
 _publ_author_address
'Hirjak M.'
;
Slovak Academy of Sciences (SAS)
Institute of Inorganic Chemistry
Bratislava
Slovakia
;
'Lejay P.'
;
Bordeaux I University
Laboratoire de Chimie du Solide (LCS)
Talence
France
;
'Chevalier B.'
;
Bordeaux I University
Laboratoire de Chimie du Solide (LCS)
Talence
France
;
'Etourneau J.R.'
;
Bordeaux I University
Laboratoire de Chimie du Solide (LCS)
Talence
France
;
'Hagenmuller P.'
;
Bordeaux I University
Laboratoire de Chimie du Solide (LCS)
Talence
France
;

# Standardized crystallographic data

_cell_length_a                           4.1
_cell_length_b                           4.1
_cell_length_c                           9.75
_cell_angle_alpha                        90
_cell_angle_beta                         90
_cell_angle_gamma                        90
_cell_volume                             163.9
_cell_formula_units_Z                    2
_space_group_IT_number                   129
_space_group_name_H-M_alt                'P 4/n m m (origin choice 2)'
loop_
 _space_group_symop_id
 _space_group_symop_operation_xyz
 1 'x, y, z'
 2 '1/2-x, 1/2-y, z'
 3 '1/2-x, y, z'
 4 '-x, -y, -z'
 5 '-x, 1/2+y, -z'
 6 '1/2-y, 1/2-x, z'
 7 '1/2-y, x, z'
 8 '-y, -x, -z'
 9 '-y, 1/2+x, -z'
 10 '1/2+x, -y, -z'
 11 '1/2+x, 1/2+y, -z'
 12 'x, 1/2-y, z'
 13 '1/2+y, -x, -z'
 14 '1/2+y, 1/2+x, -z'
 15 'y, 1/2-x, z'
 16 'y, x, z'

# Atomic positions taken from type-defining entry

loop_
 _atom_type_symbol
 Ir
 Si
 Y
loop_
 _atom_site_label
 _atom_site_type_symbol
 _atom_site_symmetry_multiplicity
 _atom_site_Wyckoff_symbol
 _atom_site_fract_x
 _atom_site_fract_y
 _atom_site_fract_z
 _atom_site_occupancy
 Ir1 Ir 2 c 0.25 0.25 0.108 1
 Si1 Si 2 c 0.25 0.25 0.368 1
 Y1 Y 2 c 0.25 0.25 0.749 1
 Ir2 Ir 2 b 0.75 0.25 0.5 1
 Si2 Si 2 a 0.75 0.25 0 1


_exptl_crystal_colour                    ?
_exptl_crystal_density_meas              ?
_exptl_crystal_density_diffrn            10.73
_cell_measurement_temperature            ?
_cell_measurement_radiation              'X-rays, Cu Ka'
_cell_measurement_reflns_used            ?
_diffrn_ambient_temperature              ?
_diffrn_measurement_device               'Guinier film'
_diffrn_measurement_device_type          ?
_diffrn_radiation_type                   ?
_diffrn_reflns_number                    ?
_exptl_absorpt_coefficient_mu            ?
_exptl_absorpt_correction_type           ?
_computing_structure_solution            ?
_refine_ls_number_parameters             ?
_refine_ls_number_reflns                 ?
_refine_ls_R_factor_gt                   ?
_refine_ls_wR_factor_gt                  ?

# End of data set 538891

