##############################################################################
#                                                                            #
# Eu-Ga-Ni         # Eu3Ni4Ga4                                     #  539045 #
#                                                                            #
##############################################################################
#                                                                            #
#                           Pearson's Crystal Data                           #
#      Crystal Structure Database for Inorganic Compounds (on DVD)           #
#                              Release 2023/24                               #
#                  Editors: Pierre Villars and Karin Cenzual                 #
#                                                                            #
#   Copyright (c) ASM International & Material Phases Data System (MPDS),    #
# Switzerland & National Institute for Materials Science (NIMS), Japan, 2023 #
#                   All rights reserved. Version 2023.07                     #
#                                                                            #
#   This copy of Pearson's Crystal Data is licensed to:                      #
#   Hunter College - City University of New York                             #
#                                                                            #
##############################################################################

data_539045
_audit_creation_date                     2024-02-24
_audit_creation_method
;
Pearson's Crystal Data browser
;
#_database_code_PCD                      539045
_database_code_PDF                       04-009-0232

# Entry summary

_chemical_formula_structural             'Eu~3~ Ni~4~ Ga~4~'
_chemical_formula_sum                    'Eu3 Ga4 Ni4'
_chemical_name_mineral                   ?
_chemical_compound_source                ?
_chemical_name_structure_type            Na~3~Pt~4~Ge~4~,cI22,217
_chemical_formula_weight                 969.6

# Bibliographic data

_publ_section_title
'Crystal structure of EuCuGa and related compounds'                           
_journal_coden_ASTM                      JCOMAH
_journal_name_full                       'J. Less-Common Met.'
_journal_year                            1987
_journal_volume                          127
_journal_page_first                      175
_journal_page_last                       178
_journal_language                        English
loop_
 _publ_author_name
 _publ_author_address
'Dwight A.E.'
;
Northern Illinois University (NIU)
Department of Physics
DeKalb
U.S.A. Illinois
;

# Standardized crystallographic data

_cell_length_a                           7.505
_cell_length_b                           7.505
_cell_length_c                           7.505
_cell_angle_alpha                        90
_cell_angle_beta                         90
_cell_angle_gamma                        90
_cell_volume                             422.7
_cell_formula_units_Z                    2
_space_group_IT_number                   217
_space_group_name_H-M_alt                'I -4 3 m'
loop_
 _space_group_symop_id
 _space_group_symop_operation_xyz
 1 'x, y, z'
 2 '-x, -y, z'
 3 '-x, -z, y'
 4 '-x, y, -z'
 5 '-x, z, -y'
 6 '-y, -x, z'
 7 '-y, -z, x'
 8 '-y, x, -z'
 9 '-y, z, -x'
 10 '-z, -x, y'
 11 '-z, -y, x'
 12 '-z, x, -y'
 13 '-z, y, -x'
 14 'x, -y, -z'
 15 'x, -z, -y'
 16 'x, z, y'
 17 'y, -x, -z'
 18 'y, -z, -x'
 19 'y, x, z'
 20 'y, z, x'
 21 'z, -x, -y'
 22 'z, -y, -x'
 23 'z, x, y'
 24 'z, y, x'
 25 '1/2+x, 1/2+y, 1/2+z'
 26 '1/2-x, 1/2-y, 1/2+z'
 27 '1/2-x, 1/2-z, 1/2+y'
 28 '1/2-x, 1/2+y, 1/2-z'
 29 '1/2-x, 1/2+z, 1/2-y'
 30 '1/2-y, 1/2-x, 1/2+z'
 31 '1/2-y, 1/2-z, 1/2+x'
 32 '1/2-y, 1/2+x, 1/2-z'
 33 '1/2-y, 1/2+z, 1/2-x'
 34 '1/2-z, 1/2-x, 1/2+y'
 35 '1/2-z, 1/2-y, 1/2+x'
 36 '1/2-z, 1/2+x, 1/2-y'
 37 '1/2-z, 1/2+y, 1/2-x'
 38 '1/2+x, 1/2-y, 1/2-z'
 39 '1/2+x, 1/2-z, 1/2-y'
 40 '1/2+x, 1/2+z, 1/2+y'
 41 '1/2+y, 1/2-x, 1/2-z'
 42 '1/2+y, 1/2-z, 1/2-x'
 43 '1/2+y, 1/2+x, 1/2+z'
 44 '1/2+y, 1/2+z, 1/2+x'
 45 '1/2+z, 1/2-x, 1/2-y'
 46 '1/2+z, 1/2-y, 1/2-x'
 47 '1/2+z, 1/2+x, 1/2+y'
 48 '1/2+z, 1/2+y, 1/2+x'

# Atomic positions taken from type-defining entry

loop_
 _atom_type_symbol
 Ni
 Ga
 Eu
loop_
 _atom_site_label
 _atom_site_type_symbol
 _atom_site_symmetry_multiplicity
 _atom_site_Wyckoff_symbol
 _atom_site_fract_x
 _atom_site_fract_y
 _atom_site_fract_z
 _atom_site_occupancy
 Ni1 Ni 8 c 0.1366 0.1366 0.1366 1
 Ga1 Ga 8 c 0.3136 0.3136 0.3136 1
 Eu1 Eu 6 b 0 0.5 0.5 1


_exptl_crystal_colour                    ?
_exptl_crystal_density_meas              7.3
_exptl_crystal_density_diffrn            7.62
_cell_measurement_temperature            ?
_cell_measurement_radiation              'X-rays, Co Ka, Cr Ka'
_cell_measurement_reflns_used            ?
_diffrn_ambient_temperature              ?
_diffrn_measurement_device               film
_diffrn_measurement_device_type          ?
_diffrn_radiation_type                   ?
_diffrn_reflns_number                    ?
_exptl_absorpt_coefficient_mu            ?
_exptl_absorpt_correction_type           ?
_computing_structure_solution            ?
_refine_ls_number_parameters             ?
_refine_ls_number_reflns                 ?
_refine_ls_R_factor_gt                   ?
_refine_ls_wR_factor_gt                  ?

# End of data set 539045

