##############################################################################
#                                                                            #
# Ga-Ni-Pr         # PrNiGa3                                       #  539027 #
#                                                                            #
##############################################################################
#                                                                            #
#                           Pearson's Crystal Data                           #
#      Crystal Structure Database for Inorganic Compounds (on DVD)           #
#                              Release 2023/24                               #
#                  Editors: Pierre Villars and Karin Cenzual                 #
#                                                                            #
#   Copyright (c) ASM International & Material Phases Data System (MPDS),    #
# Switzerland & National Institute for Materials Science (NIMS), Japan, 2023 #
#                   All rights reserved. Version 2023.07                     #
#                                                                            #
#   This copy of Pearson's Crystal Data is licensed to:                      #
#   Hunter College - City University of New York                             #
#                                                                            #
##############################################################################

data_539027
_audit_creation_date                     2024-02-24
_audit_creation_method
;
Pearson's Crystal Data browser
;
#_database_code_PCD                      539027
_database_code_PDF                       04-005-2615

# Entry summary

_chemical_formula_structural             'Pr Ni Ga~3~'
_chemical_formula_sum                    'Ga3 Ni Pr'
_chemical_name_mineral                   ?
_chemical_compound_source                ?
_chemical_name_structure_type            CePtGa~3~,oF20,42
_chemical_formula_weight                 408.8

# Bibliographic data

_publ_section_title
;
Magnetism and structural chemistry of ternary gallides RENi~x~Ga~4-x~ (RE= La, Ce, Pr, Nd, Sm, Gd, Tb) and LaCo~0.5~Ga~3.5~
;
_journal_coden_ASTM                      JCOMAH
_journal_name_full                       'J. Less-Common Met.'
_journal_year                            1990
_journal_volume                          162
_journal_page_first                      361
_journal_page_last                       369
_journal_language                        English
loop_
 _publ_author_name
 _publ_author_address
'Grin Y.'
;
Lviv Ivan Franko State University
Department of Inorganic Chemistry
Lviv
Ukraine
;
'Hiebl K.'
;
Vienna University
Institut fur Physikalische Chemie
Vienna
Austria
;
'Rogl P.'
;
Vienna University
Institut fur Physikalische Chemie
Vienna
Austria
;
'Noel H.'
;
Rennes I University
Laboratoire de Chimie Minerale
Rennes
France
;

# Standardized crystallographic data

_cell_length_a                           5.9522
_cell_length_b                           6.0053
_cell_length_c                           10.249
_cell_angle_alpha                        90
_cell_angle_beta                         90
_cell_angle_gamma                        90
_cell_volume                             366.35
_cell_formula_units_Z                    4
_space_group_IT_number                   42
_space_group_name_H-M_alt                'F m m 2'
loop_
 _space_group_symop_id
 _space_group_symop_operation_xyz
 1 'x, y, z'
 2 '-x, -y, z'
 3 '-x, y, z'
 4 'x, -y, z'
 5 'x, 1/2+y, 1/2+z'
 6 '-x, 1/2-y, 1/2+z'
 7 '-x, 1/2+y, 1/2+z'
 8 'x, 1/2-y, 1/2+z'
 9 '1/2+x, y, 1/2+z'
 10 '1/2-x, -y, 1/2+z'
 11 '1/2-x, y, 1/2+z'
 12 '1/2+x, -y, 1/2+z'
 13 '1/2+x, 1/2+y, z'
 14 '1/2-x, 1/2-y, z'
 15 '1/2-x, 1/2+y, z'
 16 '1/2+x, 1/2-y, z'
loop_
 _atom_type_symbol
 Ga
 Ni
 Pr
loop_
 _atom_site_label
 _atom_site_type_symbol
 _atom_site_symmetry_multiplicity
 _atom_site_Wyckoff_symbol
 _atom_site_fract_x
 _atom_site_fract_y
 _atom_site_fract_z
 _atom_site_occupancy
 Ga1 Ga 8 b 0.25 0.25 0.4 1
 Ga1A Ga 4 a 0 0 0.0 0.5
 Ni1B Ni 4 a 0 0 0.0 0.5
 Ga2A Ga 4 a 0 0 0.236 0.5
 Ni2B Ni 4 a 0 0 0.236 0.5
 Pr Pr 4 a 0 0 0.645 1


_exptl_crystal_colour                    ?
_exptl_crystal_density_meas              ?
_exptl_crystal_density_diffrn            7.41
_cell_measurement_temperature            ?
_cell_measurement_radiation              X-rays
_cell_measurement_reflns_used            ?
_diffrn_ambient_temperature              ?
_diffrn_measurement_device               'automatic diffractometer'
_diffrn_measurement_device_type          ?
_diffrn_radiation_type                   'X-rays, Mo Ka'
_diffrn_reflns_number                    ?
_exptl_absorpt_coefficient_mu            ?
_exptl_absorpt_correction_type           ?
_computing_structure_solution            'starting values from the literature'
_refine_ls_number_parameters             ?
_refine_ls_number_reflns                 ?
_refine_ls_R_factor_gt                   0.088
_refine_ls_wR_factor_gt                  ?
_pd_proc_ls_proof_R_factor               ?
_pd_proc_ls_proof_wR_factor              ?
_refine_ls_R_I_factor                    ?

# End of data set 539027

