##############################################################################
#                                                                            #
# Ce-Co-Si         # CeCoSi2                                       #  539516 #
#                                                                            #
##############################################################################
#                                                                            #
#                           Pearson's Crystal Data                           #
#      Crystal Structure Database for Inorganic Compounds (on DVD)           #
#                              Release 2023/24                               #
#                  Editors: Pierre Villars and Karin Cenzual                 #
#                                                                            #
#   Copyright (c) ASM International & Material Phases Data System (MPDS),    #
# Switzerland & National Institute for Materials Science (NIMS), Japan, 2023 #
#                   All rights reserved. Version 2023.07                     #
#                                                                            #
#   This copy of Pearson's Crystal Data is licensed to:                      #
#   Hunter College - City University of New York                             #
#                                                                            #
##############################################################################

data_539516
_audit_creation_date                     2024-02-24
_audit_creation_method
;
Pearson's Crystal Data browser
;
#_database_code_PCD                      539516
_database_code_PDF                       04-005-2996

# Entry summary

_chemical_formula_structural             'Ce Co~0.83~ Si~2.17~'
_chemical_formula_sum                    'Ce Co0.83 Si2.17'
_chemical_name_mineral                   ?
_chemical_compound_source                ?
_chemical_name_structure_type            CeNiSi~2~,oS16,63
_chemical_formula_weight                 250.0

# Bibliographic data

_publ_section_title
;
Single-crystal studies of non-stoichiometric CeNiSi~2~-type phases in the Ce-Co-Si and Lu-Co-Si systems
;
_journal_coden_ASTM                      JCOMAH
_journal_name_full                       'J. Less-Common Met.'
_journal_year                            1986
_journal_volume                          125
_journal_page_first                      147
_journal_page_last                       156
_journal_language                        English
loop_
 _publ_author_name
 _publ_author_address
'Chabot B.'
;
Geneva University (UNIGE)
Laboratoire de Cristallographie aux Rayons X
Geneva
Switzerland
;
'Parthe E.'
;
Geneva University (UNIGE)
Laboratoire de Cristallographie aux Rayons X
Geneva
Switzerland
;
'Steinmetz J.'
;
Nancy I Henri Poincare University
Laboratoire de Chimie du Solide Mineral (LCSM)
Vandoeuvre-les-Nancy
France
;

# Standardized crystallographic data

_cell_length_a                           4.143
_cell_length_b                           16.505
_cell_length_c                           4.076
_cell_angle_alpha                        90
_cell_angle_beta                         90
_cell_angle_gamma                        90
_cell_volume                             278.7
_cell_formula_units_Z                    4
_space_group_IT_number                   63
_space_group_name_H-M_alt                'C m c m'
loop_
 _space_group_symop_id
 _space_group_symop_operation_xyz
 1 'x, y, z'
 2 '-x, -y, -z'
 3 '-x, -y, 1/2+z'
 4 '-x, y, 1/2-z'
 5 '-x, y, z'
 6 'x, -y, -z'
 7 'x, -y, 1/2+z'
 8 'x, y, 1/2-z'
 9 '1/2+x, 1/2+y, z'
 10 '1/2-x, 1/2-y, -z'
 11 '1/2-x, 1/2-y, 1/2+z'
 12 '1/2-x, 1/2+y, 1/2-z'
 13 '1/2-x, 1/2+y, z'
 14 '1/2+x, 1/2-y, -z'
 15 '1/2+x, 1/2-y, 1/2+z'
 16 '1/2+x, 1/2+y, 1/2-z'
loop_
 _atom_type_symbol
 Si
 Co
 Ce
loop_
 _atom_site_label
 _atom_site_type_symbol
 _atom_site_symmetry_multiplicity
 _atom_site_Wyckoff_symbol
 _atom_site_fract_x
 _atom_site_fract_y
 _atom_site_fract_z
 _atom_site_occupancy
 Si1 Si 4 c 0 0.0401 0.25 1
 Co1A Co 4 c 0 0.1805 0.25 0.83
 Si1B Si 4 c 0 0.1805 0.25 0.17
 Ce Ce 4 c 0 0.39282 0.25 1
 Si2 Si 4 c 0 0.7499 0.25 1


_exptl_crystal_colour                    ?
_exptl_crystal_density_meas              ?
_exptl_crystal_density_diffrn            5.96
_cell_measurement_temperature            ?
_cell_measurement_radiation              'X-rays, Mo Ka'
_cell_measurement_wavelength             0.7107
_cell_measurement_reflns_used            14
_diffrn_ambient_temperature              ?
_diffrn_measurement_device               'automatic diffractometer'
_diffrn_measurement_device_type          'Philips PW1100'
_diffrn_radiation_type                   'X-rays, Mo Ka'
_diffrn_radiation_wavelength             0.7107
_diffrn_reflns_number                    256
_exptl_absorpt_coefficient_mu            22.9
_exptl_absorpt_correction_type           spherical
_computing_structure_solution            'starting values from the literature'
_refine_ls_number_parameters             11
_refine_ls_number_reflns                 236
_refine_ls_R_factor_gt                   0.026
_refine_ls_wR_factor_gt                  0.013

# End of data set 539516

