##############################################################################
#                                                                            #
# Ce-Ni-Si         # CeNiSi                                        #  539969 #
#                                                                            #
##############################################################################
#                                                                            #
#                           Pearson's Crystal Data                           #
#      Crystal Structure Database for Inorganic Compounds (on DVD)           #
#                              Release 2023/24                               #
#                  Editors: Pierre Villars and Karin Cenzual                 #
#                                                                            #
#   Copyright (c) ASM International & Material Phases Data System (MPDS),    #
# Switzerland & National Institute for Materials Science (NIMS), Japan, 2023 #
#                   All rights reserved. Version 2023.07                     #
#                                                                            #
#   This copy of Pearson's Crystal Data is licensed to:                      #
#   Hunter College - City University of New York                             #
#                                                                            #
##############################################################################

data_539969
_audit_creation_date                     2024-02-24
_audit_creation_method
;
Pearson's Crystal Data browser
;
#_database_code_PCD                      539969
_database_code_PDF                       04-005-3364

# Entry summary

_chemical_formula_structural             'Ce Ni Si'
_chemical_formula_sum                    'Ce Ni Si'
_chemical_name_mineral                   ?
_chemical_compound_source                ?
_chemical_name_structure_type            LaPtSi,tI12,109
_chemical_formula_weight                 226.9

# Bibliographic data

_publ_section_title
'The system cerium-nickel-silicon in the region 33.3-100 at.% Ce'             
_journal_coden_ASTM                      INOMAF
_journal_name_full                       'Inorg. Mater.'
_journal_year                            1973
_journal_volume                          9
_journal_page_first                      777
_journal_page_last                       779
_journal_language                        English
loop_
 _publ_author_name
 _publ_author_address
'Bodak O.I.'
;
Lviv Ivan Franko State University
Department of Inorganic Chemistry
Lviv
Ukraine
;
'Mis'kiv M.G.'
;
Lviv Ivan Franko State University
Lviv
Ukraine
;
'Tyvanchuk A.T.'
;
Lviv Ivan Franko State University
Department of Inorganic Chemistry
Lviv
Ukraine
;
'Kharchenko O.I.'
;
Lviv Ivan Franko State University
Department of Inorganic Chemistry
Lviv
Ukraine
;
'Gladyshevskii E.I.'
;
Lviv Ivan Franko State University
Department of Inorganic Chemistry
Lviv
Ukraine
;

# Standardized crystallographic data

_cell_length_a                           4.055
_cell_length_b                           4.055
_cell_length_c                           14.023
_cell_angle_alpha                        90
_cell_angle_beta                         90
_cell_angle_gamma                        90
_cell_volume                             230.6
_cell_formula_units_Z                    4
_space_group_IT_number                   109
_space_group_name_H-M_alt                'I 41 m d'
loop_
 _space_group_symop_id
 _space_group_symop_operation_xyz
 1 'x, y, z'
 2 '-x, -y, z'
 3 '-x, y, z'
 4 '-y, 1/2-x, 1/4+z'
 5 '-y, 1/2+x, 1/4+z'
 6 'x, -y, z'
 7 'y, 1/2-x, 1/4+z'
 8 'y, 1/2+x, 1/4+z'
 9 '1/2+x, 1/2+y, 1/2+z'
 10 '1/2-x, 1/2-y, 1/2+z'
 11 '1/2-x, 1/2+y, 1/2+z'
 12 '1/2-y, 1-x, 3/4+z'
 13 '1/2-y, 1+x, 3/4+z'
 14 '1/2+x, 1/2-y, 1/2+z'
 15 '1/2+y, 1-x, 3/4+z'
 16 '1/2+y, 1+x, 3/4+z'

# Atomic positions taken from type-defining entry

loop_
 _atom_type_symbol
 Si
 Ni
 Ce
loop_
 _atom_site_label
 _atom_site_type_symbol
 _atom_site_symmetry_multiplicity
 _atom_site_Wyckoff_symbol
 _atom_site_fract_x
 _atom_site_fract_y
 _atom_site_fract_z
 _atom_site_occupancy
 Si1 Si 4 a 0 0 0.0 1
 Ni1 Ni 4 a 0 0 0.166 1
 Ce1 Ce 4 a 0 0 0.581 1


_exptl_crystal_colour                    ?
_exptl_crystal_density_meas              ?
_exptl_crystal_density_diffrn            6.54
_cell_measurement_temperature            ?
_cell_measurement_radiation              'X-rays, Cr Ka'
_cell_measurement_reflns_used            ?
_diffrn_ambient_temperature              ?
_diffrn_measurement_device               film
_diffrn_measurement_device_type          ?
_diffrn_radiation_type                   ?
_diffrn_reflns_number                    ?
_exptl_absorpt_coefficient_mu            ?
_exptl_absorpt_correction_type           ?
_computing_structure_solution            ?
_refine_ls_number_parameters             ?
_refine_ls_number_reflns                 ?
_refine_ls_R_factor_gt                   ?
_refine_ls_wR_factor_gt                  ?

# End of data set 539969

