##############################################################################
#                                                                            #
# Co-Ge-Sm         # Sm3Co2Ge4                                     #  540261 #
#                                                                            #
##############################################################################
#                                                                            #
#                           Pearson's Crystal Data                           #
#      Crystal Structure Database for Inorganic Compounds (on DVD)           #
#                              Release 2023/24                               #
#                  Editors: Pierre Villars and Karin Cenzual                 #
#                                                                            #
#   Copyright (c) ASM International & Material Phases Data System (MPDS),    #
# Switzerland & National Institute for Materials Science (NIMS), Japan, 2023 #
#                   All rights reserved. Version 2023.07                     #
#                                                                            #
#   This copy of Pearson's Crystal Data is licensed to:                      #
#   Hunter College - City University of New York                             #
#                                                                            #
##############################################################################

data_540261
_audit_creation_date                     2024-02-24
_audit_creation_method
;
Pearson's Crystal Data browser
;
#_database_code_PCD                      540261
_database_code_PDF                       04-005-3612

# Entry summary

_chemical_formula_structural             'Sm~3~ Co~2~ Ge~4~'
_chemical_formula_sum                    'Co2 Ge4 Sm3'
_chemical_name_mineral                   ?
_chemical_compound_source                ?
_chemical_name_structure_type            Tb~3~Co~2~Ge~4~,mS18,12
_chemical_formula_weight                 859.4

# Bibliographic data

_publ_section_title
;
Crystal structure of the compounds R~3~Co~2~Ge~4~ (R= Sm, Y, Gd, Dy, Ho, Er, Tm)
;
_journal_coden_ASTM                      INOMAF
_journal_name_full                       'Inorg. Mater.'
_journal_year                            1989
_journal_volume                          25
_journal_page_first                      1708
_journal_page_last                       1710
_journal_language                        English
loop_
 _publ_author_name
 _publ_author_address
'Mrooz O.Y.'
;
Lviv Ivan Franko State University
Lviv
Ukraine
;
'Fedyna M.F.'
;
Lviv Ivan Franko State University
Lviv
Ukraine
;
'Pecharskii V.K.'
;
Lviv Ivan Franko State University
Department of Inorganic Chemistry
Lviv
Ukraine
;
'Bodak O.I.'
;
Lviv Ivan Franko State University
Department of Inorganic Chemistry
Lviv
Ukraine
;

# Standardized crystallographic data

_cell_length_a                           10.846
_cell_length_b                           4.1851
_cell_length_c                           8.1388
_cell_angle_alpha                        90
_cell_angle_beta                         107.7
_cell_angle_gamma                        90
_cell_volume                             351.9
_cell_formula_units_Z                    2
_space_group_IT_number                   12
_space_group_name_H-M_alt                'C 1 2/m 1'
loop_
 _space_group_symop_id
 _space_group_symop_operation_xyz
 1 'x, y, z'
 2 '-x, -y, -z'
 3 '-x, y, -z'
 4 'x, -y, z'
 5 '1/2+x, 1/2+y, z'
 6 '1/2-x, 1/2-y, -z'
 7 '1/2-x, 1/2+y, -z'
 8 '1/2+x, 1/2-y, z'
loop_
 _atom_type_symbol
 Ge
 Co
 Sm
loop_
 _atom_site_label
 _atom_site_type_symbol
 _atom_site_symmetry_multiplicity
 _atom_site_Wyckoff_symbol
 _atom_site_fract_x
 _atom_site_fract_y
 _atom_site_fract_z
 _atom_site_occupancy
 Ge(1) Ge 4 i 0.104 0 0.407 1
 Co Co 4 i 0.298 0 0.623 1
 Sm(2) Sm 4 i 0.3826 0 0.3098 1
 Ge(2) Ge 4 i 0.716 0 0.088 1
 Sm(1) Sm 2 a 0 0 0 1


_exptl_crystal_colour                    ?
_exptl_crystal_density_meas              ?
_exptl_crystal_density_diffrn            8.11
_cell_measurement_temperature            ?
_cell_measurement_radiation              'X-rays, Cr Ka'
_cell_measurement_reflns_used            ?
_diffrn_ambient_temperature              ?
_diffrn_measurement_device               'automatic diffractometer'
_diffrn_measurement_device_type          ?
_diffrn_radiation_type                   'X-rays, Mo Ka'
_diffrn_reflns_number                    ?
_exptl_absorpt_coefficient_mu            ?
_exptl_absorpt_correction_type           ?
_computing_structure_solution            'starting values from the literature'
_refine_ls_number_parameters             ?
_refine_ls_number_reflns                 ?
_refine_ls_R_factor_gt                   ?
_refine_ls_wR_factor_gt                  ?
_pd_proc_ls_proof_R_factor               0.089
_pd_proc_ls_proof_wR_factor              ?
_refine_ls_R_I_factor                    ?

# Published diffraction lines

loop_
 _refln_index_h
 _refln_index_k
 _refln_index_l
 _refln_d_spacing
 _refln_intensity_meas
 3 2 1 1.986 93
 4 2 0 1.9 110
 -6 1 0 1.801 253
 -3 4 1 1.778 94
 -5 3 1 1.749 55
 5 1 1 1.7 79
 3 3 1 1.668 21
 2 2 2 1.656 281
 -2 3 2 1.645 109
 -2 5 0 1.627 150
 -4 2 2 1.614 42
 6 1 0 1.585 15
 -5 4 1 1.57 28
 -6 4 0 1.541 147
 4 1 2 1.534 80
 -3 5 1 1.5 124
 2 3 2 1.472 17
 -7 2 1 1.449 234
 0 4 2 1.418 43
 4 2 2 1.41 29
 7 0 1 1.386 116
 -6 1 2 1.364 124
 -8 2 0 1.354 123
 5 3 1 1.344 23
 7 1 1 1.306 147
 -3 1 3 1.299 131
 3 0 3 1.295 58
 -3 6 1 1.286 77
 4 3 2 1.27 30
 -8 4 0 1.266 28
 6 1 2 1.263 27
 -6 4 2 1.24 115
 -5 6 1 1.229 121
 -7 5 1 1.225 35
 8 1 0 1.213 34
 5 4 1 1.187 119
 4 5 0 1.181 16
 -9 3 1 1.143 30
 -8 2 2 1.137 49
 5 1 3 1.116 29
 7 3 1 1.099 34
 -8 4 2 1.084 37
 -5 4 3 1.071 19
 -9 5 1 1.059 42
 8 3 0 1.035 49

# End of data set 540261

