##############################################################################
#                                                                            #
# Ru-Sn-Y          # YRu4Sn6                                       #  540603 #
#                                                                            #
##############################################################################
#                                                                            #
#                           Pearson's Crystal Data                           #
#      Crystal Structure Database for Inorganic Compounds (on DVD)           #
#                              Release 2023/24                               #
#                  Editors: Pierre Villars and Karin Cenzual                 #
#                                                                            #
#   Copyright (c) ASM International & Material Phases Data System (MPDS),    #
# Switzerland & National Institute for Materials Science (NIMS), Japan, 2023 #
#                   All rights reserved. Version 2023.07                     #
#                                                                            #
#   This copy of Pearson's Crystal Data is licensed to:                      #
#   Hunter College - City University of New York                             #
#                                                                            #
##############################################################################

data_540603
_audit_creation_date                     2024-02-25
_audit_creation_method
;
Pearson's Crystal Data browser
;
#_database_code_PCD                      540603
_database_code_PDF                       04-009-0347

# Entry summary

_chemical_formula_structural             'Y Ru~4~ Sn~6~'
_chemical_formula_sum                    'Ru4 Sn6 Y'
_chemical_name_mineral                   ?
_chemical_compound_source                ?
_chemical_name_structure_type            YRu~4~Sn~6~,tI22,121
_chemical_formula_weight                 1205.3

# Bibliographic data

_publ_section_title
'Crystal structure and electrical properties of tetragonal YRu~4~Sn~6~'       
_journal_coden_ASTM                      MRBUAC
_journal_name_full                       'Mater. Res. Bull.'
_journal_year                            1990
_journal_volume                          25
_journal_page_first                      1541
_journal_page_last                       1546
_journal_language                        English
loop_
 _publ_author_name
 _publ_author_address
'Venturini G.'
;
Nancy I Henri Poincare University
Laboratoire de Chimie du Solide Mineral (LCSM)
Vandoeuvre-les-Nancy
France
;
'Chafik El Idrissi B.'
;
Nancy I Henri Poincare University
Laboratoire de Chimie du Solide Mineral (LCSM)
Vandoeuvre-les-Nancy
France
;
'Mareche J.F.'
;
Nancy I Henri Poincare University
Laboratoire de Chimie du Solide Mineral (LCSM)
Vandoeuvre-les-Nancy
France
;
'Malaman B.'
;
Nancy I Henri Poincare University
Laboratoire de Chimie du Solide Mineral (LCSM)
Vandoeuvre-les-Nancy
France
;

# Standardized crystallographic data

_cell_length_a                           6.84
_cell_length_b                           6.84
_cell_length_c                           9.786
_cell_angle_alpha                        90
_cell_angle_beta                         90
_cell_angle_gamma                        90
_cell_volume                             457.8
_cell_formula_units_Z                    2
_space_group_IT_number                   121
_space_group_name_H-M_alt                'I -4 2 m'
loop_
 _space_group_symop_id
 _space_group_symop_operation_xyz
 1 'x, y, z'
 2 '-x, -y, z'
 3 '-x, y, -z'
 4 '-y, -x, z'
 5 '-y, x, -z'
 6 'x, -y, -z'
 7 'y, -x, -z'
 8 'y, x, z'
 9 '1/2+x, 1/2+y, 1/2+z'
 10 '1/2-x, 1/2-y, 1/2+z'
 11 '1/2-x, 1/2+y, 1/2-z'
 12 '1/2-y, 1/2-x, 1/2+z'
 13 '1/2-y, 1/2+x, 1/2-z'
 14 '1/2+x, 1/2-y, 1/2-z'
 15 '1/2+y, 1/2-x, 1/2-z'
 16 '1/2+y, 1/2+x, 1/2+z'
loop_
 _atom_type_symbol
 Sn
 Ru
 Y
loop_
 _atom_site_label
 _atom_site_type_symbol
 _atom_site_symmetry_multiplicity
 _atom_site_Wyckoff_symbol
 _atom_site_fract_x
 _atom_site_fract_y
 _atom_site_fract_z
 _atom_site_occupancy
 Sn1 Sn 8 i 0.1763 0.1763 0.2933 1
 Ru Ru 8 i 0.3274 0.3274 0.0772 1
 Sn2 Sn 4 c 0 0.5 0 1
 Y Y 2 a 0 0 0 1


_exptl_crystal_colour                    ?
_exptl_crystal_density_meas              ?
_exptl_crystal_density_diffrn            8.74
_cell_measurement_temperature            ?
_cell_measurement_radiation              'X-rays, Ag Ka'
_cell_measurement_reflns_used            25
_diffrn_ambient_temperature              ?
_diffrn_measurement_device               'automatic diffractometer'
_diffrn_measurement_device_type          ?
_diffrn_radiation_type                   'X-rays, Ag Ka'
_diffrn_reflns_number                    452
_exptl_absorpt_coefficient_mu            14.9
_exptl_absorpt_correction_type           no
_computing_structure_solution            'direct methods'
_refine_ls_number_parameters             18
_refine_ls_number_reflns                 176
_refine_ls_R_factor_gt                   0.0311
_refine_ls_wR_factor_gt                  0.0325

# End of data set 540603

