##############################################################################
#                                                                            #
# Ge-Ho-Pd         # Ho3Pd4Ge4                                     #  542741 #
#                                                                            #
##############################################################################
#                                                                            #
#                           Pearson's Crystal Data                           #
#      Crystal Structure Database for Inorganic Compounds (on DVD)           #
#                              Release 2023/24                               #
#                  Editors: Pierre Villars and Karin Cenzual                 #
#                                                                            #
#   Copyright (c) ASM International & Material Phases Data System (MPDS),    #
# Switzerland & National Institute for Materials Science (NIMS), Japan, 2023 #
#                   All rights reserved. Version 2023.07                     #
#                                                                            #
#   This copy of Pearson's Crystal Data is licensed to:                      #
#   Hunter College - City University of New York                             #
#                                                                            #
##############################################################################

data_542741
_audit_creation_date                     2024-02-25
_audit_creation_method
;
Pearson's Crystal Data browser
;
#_database_code_PCD                      542741
_database_code_PDF                       04-005-5307

# Entry summary

_chemical_formula_structural             'Ho~3~ Pd~4~ Ge~4~'
_chemical_formula_sum                    'Ge4 Ho3 Pd4'
_chemical_name_mineral                   ?
_chemical_compound_source                ?
_chemical_name_structure_type            Cu~4~Gd~3~Ge~4~,oI22,71
_chemical_formula_weight                 1210.8

# Bibliographic data

_publ_section_title
;
New ternary holmium-transition metal-germanides: Ho~2~OsGe~2~ of Sc~2~CoSi~2~ type and Ho~3~Pd~4~Ge~4~ of Gd~3~Cu~4~Ge~4~ type
;
_journal_coden_ASTM                      JALCEU
_journal_name_full                       'J. Alloys Compd.'
_journal_year                            1991
_journal_volume                          176
_journal_page_first                      329
_journal_page_last                       335
_journal_language                        English
loop_
 _publ_author_name
 _publ_author_address
'Gladyshevskii R.E.'
;
Geneva University (UNIGE)
Laboratoire de Cristallographie aux Rayons X
Geneva
Switzerland
;

# Standardized crystallographic data

_cell_length_a                           4.2348
_cell_length_b                           6.8373
_cell_length_c                           14.093
_cell_angle_alpha                        90
_cell_angle_beta                         90
_cell_angle_gamma                        90
_cell_volume                             408.1
_cell_formula_units_Z                    2
_space_group_IT_number                   71
_space_group_name_H-M_alt                'I m m m'
loop_
 _space_group_symop_id
 _space_group_symop_operation_xyz
 1 'x, y, z'
 2 '-x, -y, -z'
 3 '-x, -y, z'
 4 '-x, y, -z'
 5 '-x, y, z'
 6 'x, -y, -z'
 7 'x, -y, z'
 8 'x, y, -z'
 9 '1/2+x, 1/2+y, 1/2+z'
 10 '1/2-x, 1/2-y, 1/2-z'
 11 '1/2-x, 1/2-y, 1/2+z'
 12 '1/2-x, 1/2+y, 1/2-z'
 13 '1/2-x, 1/2+y, 1/2+z'
 14 '1/2+x, 1/2-y, 1/2-z'
 15 '1/2+x, 1/2-y, 1/2+z'
 16 '1/2+x, 1/2+y, 1/2-z'
loop_
 _atom_type_symbol
 Pd
 Ho
 Ge
loop_
 _atom_site_label
 _atom_site_type_symbol
 _atom_site_symmetry_multiplicity
 _atom_site_Wyckoff_symbol
 _atom_site_fract_x
 _atom_site_fract_y
 _atom_site_fract_z
 _atom_site_occupancy
 Pd Pd 8 l 0 0.305 0.3297 1
 Ho(1) Ho 4 j 0.5 0 0.3728 1
 Ge(1) Ge 4 i 0 0 0.2176 1
 Ge(2) Ge 4 h 0 0.188 0.5 1
 Ho(2) Ho 2 a 0 0 0 1


_exptl_crystal_colour                    ?
_exptl_crystal_density_meas              ?
_exptl_crystal_density_diffrn            9.85
_cell_measurement_temperature            293
_cell_measurement_radiation              'X-rays, Mo Ka'
_cell_measurement_wavelength             0.71073
_cell_measurement_reflns_used            20
_diffrn_ambient_temperature              293
_diffrn_measurement_device               'automatic diffractometer'
_diffrn_measurement_device_type          'Philips PW1100'
_diffrn_radiation_type                   'X-rays, Mo Ka'
_diffrn_radiation_wavelength             0.71073
_diffrn_reflns_number                    740
_exptl_absorpt_coefficient_mu            53.365
_exptl_absorpt_correction_type           ?
_computing_structure_solution            'starting values from the literature'
_refine_ls_number_parameters             23
_refine_ls_number_reflns                 329
_refine_ls_R_factor_gt                   0.075
_refine_ls_wR_factor_gt                  0.058

# End of data set 542741

