##############################################################################
#                                                                            #
# Co-Ge-U          # UCo2Ge2 rt                                    #  542814 #
#                                                                            #
##############################################################################
#                                                                            #
#                           Pearson's Crystal Data                           #
#      Crystal Structure Database for Inorganic Compounds (on DVD)           #
#                              Release 2023/24                               #
#                  Editors: Pierre Villars and Karin Cenzual                 #
#                                                                            #
#   Copyright (c) ASM International & Material Phases Data System (MPDS),    #
# Switzerland & National Institute for Materials Science (NIMS), Japan, 2023 #
#                   All rights reserved. Version 2023.07                     #
#                                                                            #
#   This copy of Pearson's Crystal Data is licensed to:                      #
#   Hunter College - City University of New York                             #
#                                                                            #
##############################################################################

data_542814
_audit_creation_date                     2024-02-24
_audit_creation_method
;
Pearson's Crystal Data browser
;
#_database_code_PCD                      542814
_database_code_PDF                       04-005-5355

# Entry summary

_chemical_formula_structural             'U Co~1.5~ Ge~2.5~'
_chemical_formula_sum                    'Co1.5 Ge2.5 U'
_chemical_name_mineral                   ?
_chemical_compound_source                ?
_chemical_name_structure_type            CeAl~2~Ga~2~,tI10,139
_chemical_formula_weight                 507.9

# Bibliographic data

_publ_section_title
'Magnetic ordering in the ternary germanides U~2~Co~3~Ge~5~ and UCo~2~Ge~2~'  
_journal_coden_ASTM                      JALCEU
_journal_name_full                       'J. Alloys Compd.'
_journal_year                            1992
_journal_volume                          178
_journal_page_first                      413
_journal_page_last                       422
_journal_language                        English
loop_
 _publ_author_name
 _publ_author_address
'Hickey E.'
;
Bordeaux I University
Laboratoire de Chimie du Solide (LCS)
Talence
France
;
'Chevalier B.'
;
Bordeaux I University
Laboratoire de Chimie du Solide (LCS)
Talence
France
;
'Lepine B.'
;
Bordeaux I University
Laboratoire de Chimie du Solide (LCS)
Talence
France
;
'Etourneau J.R.'
;
Bordeaux I University
Laboratoire de Chimie du Solide (LCS)
Talence
France
;
'Ramos M.A.F.'
;
Porto University
Instituto de Fisica dos Materiais (IFIMUP)
Porto
Portugal
;
'Ferreira Da Silva J.'
;
Porto University
Instituto de Fisica dos Materiais (IFIMUP)
Porto
Portugal
;
'Amado M.M.'
;
Porto University
Instituto de Fisica dos Materiais (IFIMUP)
Porto
Portugal
;
'Sousa J.B.'
;
Porto University
Instituto de Fisica dos Materiais (IFIMUP)
Porto
Portugal
;

# Standardized crystallographic data

_cell_length_a                           4.11
_cell_length_b                           4.11
_cell_length_c                           9.17
_cell_angle_alpha                        90
_cell_angle_beta                         90
_cell_angle_gamma                        90
_cell_volume                             154.9
_cell_formula_units_Z                    2
_space_group_IT_number                   139
_space_group_name_H-M_alt                'I 4/m m m'
loop_
 _space_group_symop_id
 _space_group_symop_operation_xyz
 1 'x, y, z'
 2 '-x, -y, -z'
 3 '-x, -y, z'
 4 '-x, y, -z'
 5 '-x, y, z'
 6 '-y, -x, -z'
 7 '-y, -x, z'
 8 '-y, x, -z'
 9 '-y, x, z'
 10 'x, -y, -z'
 11 'x, -y, z'
 12 'x, y, -z'
 13 'y, -x, -z'
 14 'y, -x, z'
 15 'y, x, -z'
 16 'y, x, z'
 17 '1/2+x, 1/2+y, 1/2+z'
 18 '1/2-x, 1/2-y, 1/2-z'
 19 '1/2-x, 1/2-y, 1/2+z'
 20 '1/2-x, 1/2+y, 1/2-z'
 21 '1/2-x, 1/2+y, 1/2+z'
 22 '1/2-y, 1/2-x, 1/2-z'
 23 '1/2-y, 1/2-x, 1/2+z'
 24 '1/2-y, 1/2+x, 1/2-z'
 25 '1/2-y, 1/2+x, 1/2+z'
 26 '1/2+x, 1/2-y, 1/2-z'
 27 '1/2+x, 1/2-y, 1/2+z'
 28 '1/2+x, 1/2+y, 1/2-z'
 29 '1/2+y, 1/2-x, 1/2-z'
 30 '1/2+y, 1/2-x, 1/2+z'
 31 '1/2+y, 1/2+x, 1/2-z'
 32 '1/2+y, 1/2+x, 1/2+z'

# Atomic positions taken from type-defining entry

loop_
 _atom_type_symbol
 Ge
 Co
 U
loop_
 _atom_site_label
 _atom_site_type_symbol
 _atom_site_symmetry_multiplicity
 _atom_site_Wyckoff_symbol
 _atom_site_fract_x
 _atom_site_fract_y
 _atom_site_fract_z
 _atom_site_occupancy
 Ge1 Ge 4 e 0 0 0.387 1
 Co1A Co 4 d 0 0.5 0.25 0.750
 Ge1B Ge 4 d 0 0.5 0.25 0.250
 U1 U 2 a 0 0 0 1


_exptl_crystal_colour                    ?
_exptl_crystal_density_meas              ?
_exptl_crystal_density_diffrn            10.89
_cell_measurement_temperature            ?
_cell_measurement_radiation              X-rays
_cell_measurement_reflns_used            ?
_diffrn_ambient_temperature              ?
_diffrn_measurement_device               film
_diffrn_measurement_device_type          ?
_diffrn_radiation_type                   ?
_diffrn_reflns_number                    ?
_exptl_absorpt_coefficient_mu            ?
_exptl_absorpt_correction_type           ?
_computing_structure_solution            ?
_refine_ls_number_parameters             ?
_refine_ls_number_reflns                 ?
_refine_ls_R_factor_gt                   ?
_refine_ls_wR_factor_gt                  ?

# End of data set 542814

