##############################################################################
#                                                                            #
# Co-Nd-Si         # NdCoSi2 orth                                  #  548057 #
#                                                                            #
##############################################################################
#                                                                            #
#                           Pearson's Crystal Data                           #
#      Crystal Structure Database for Inorganic Compounds (on DVD)           #
#                              Release 2023/24                               #
#                  Editors: Pierre Villars and Karin Cenzual                 #
#                                                                            #
#   Copyright (c) ASM International & Material Phases Data System (MPDS),    #
# Switzerland & National Institute for Materials Science (NIMS), Japan, 2023 #
#                   All rights reserved. Version 2023.07                     #
#                                                                            #
#   This copy of Pearson's Crystal Data is licensed to:                      #
#   Hunter College - City University of New York                             #
#                                                                            #
##############################################################################

data_548057
_audit_creation_date                     2024-02-24
_audit_creation_method
;
Pearson's Crystal Data browser
;
#_database_code_PCD                      548057
_database_code_PDF                       04-005-8512

# Entry summary

_chemical_formula_structural             'Nd Co Si~2~'
_chemical_formula_sum                    'Co Nd Si2'
_chemical_name_mineral                   ?
_chemical_compound_source                ?
_chemical_name_structure_type            CeNiSi~2~,oS16,63
_chemical_formula_weight                 259.3

# Bibliographic data

_publ_section_title
'Neutron Diffraction Study of NdCoSi~2~'                                      
_journal_coden_ASTM                      PSSABA
_journal_name_full                       'Phys. Status Solidi A'
_journal_year                            1989
_journal_volume                          116
_journal_page_first                      K29
_journal_page_last                       K31
_journal_language                        English
loop_
 _publ_author_name
 _publ_author_address
'Andre G.'
;
National Center for Scientific Research (CNRS)
Laboratoire Leon Brillouin (LLB)
Gif-sur-Yvette
France
;
'Oles A.'
;
Academy of Mining and Metallurgy
Cracow
Poland
;
'Szytula A.'
;
Jagiellonian University
Cracow
Poland
;

# Standardized crystallographic data

_cell_length_a                           4.119
_cell_length_b                           16.424
_cell_length_c                           4.034
_cell_angle_alpha                        90
_cell_angle_beta                         90
_cell_angle_gamma                        90
_cell_volume                             272.9
_cell_formula_units_Z                    4
_space_group_IT_number                   63
_space_group_name_H-M_alt                'C m c m'
loop_
 _space_group_symop_id
 _space_group_symop_operation_xyz
 1 'x, y, z'
 2 '-x, -y, -z'
 3 '-x, -y, 1/2+z'
 4 '-x, y, 1/2-z'
 5 '-x, y, z'
 6 'x, -y, -z'
 7 'x, -y, 1/2+z'
 8 'x, y, 1/2-z'
 9 '1/2+x, 1/2+y, z'
 10 '1/2-x, 1/2-y, -z'
 11 '1/2-x, 1/2-y, 1/2+z'
 12 '1/2-x, 1/2+y, 1/2-z'
 13 '1/2-x, 1/2+y, z'
 14 '1/2+x, 1/2-y, -z'
 15 '1/2+x, 1/2-y, 1/2+z'
 16 '1/2+x, 1/2+y, 1/2-z'
loop_
 _atom_type_symbol
 Si
 Co
 Nd
loop_
 _atom_site_label
 _atom_site_type_symbol
 _atom_site_symmetry_multiplicity
 _atom_site_Wyckoff_symbol
 _atom_site_fract_x
 _atom_site_fract_y
 _atom_site_fract_z
 _atom_site_occupancy
 Si1 Si 4 c 0 0.0333 0.25 1
 Co Co 4 c 0 0.1763 0.25 1
 Nd Nd 4 c 0 0.3982 0.25 1
 Si2 Si 4 c 0 0.7436 0.25 1


_exptl_crystal_colour                    ?
_exptl_crystal_density_meas              ?
_exptl_crystal_density_diffrn            6.31
_cell_measurement_temperature            1.36
_cell_measurement_radiation              'X-rays, Co Ka'
_cell_measurement_reflns_used            ?
_diffrn_ambient_temperature              1.36
_diffrn_measurement_device               diffractometer
_diffrn_measurement_device_type
'France, Saclay, Laboratoire Leon Brillouin LLB, ORPHEE reactor, G4.1'        
_diffrn_radiation_type                   neutrons
_diffrn_radiation_wavelength             2.439
_diffrn_reflns_number                    ?
_exptl_absorpt_coefficient_mu            ?
_exptl_absorpt_correction_type           ?
_computing_structure_solution            'starting values from the literature'
_refine_ls_number_parameters             ?
_refine_ls_number_reflns                 ?
_refine_ls_R_factor_gt                   0.0701
_refine_ls_wR_factor_gt                  ?
_pd_proc_ls_proof_R_factor               ?
_pd_proc_ls_proof_wR_factor              ?
_refine_ls_R_I_factor                    ?

# End of data set 548057

