##############################################################################
#                                                                            #
# Os-Si-Tm         # TmOs2Si2                                      #  548699 #
#                                                                            #
##############################################################################
#                                                                            #
#                           Pearson's Crystal Data                           #
#      Crystal Structure Database for Inorganic Compounds (on DVD)           #
#                              Release 2023/24                               #
#                  Editors: Pierre Villars and Karin Cenzual                 #
#                                                                            #
#   Copyright (c) ASM International & Material Phases Data System (MPDS),    #
# Switzerland & National Institute for Materials Science (NIMS), Japan, 2023 #
#                   All rights reserved. Version 2023.07                     #
#                                                                            #
#   This copy of Pearson's Crystal Data is licensed to:                      #
#   Hunter College - City University of New York                             #
#                                                                            #
##############################################################################

data_548699
_audit_creation_date                     2024-02-25
_audit_creation_method
;
Pearson's Crystal Data browser
;
#_database_code_PCD                      548699
_database_code_PDF                       04-005-9046

# Entry summary

_chemical_formula_structural             'Tm Os~2~ Si~2~'
_chemical_formula_sum                    'Os2 Si2 Tm'
_chemical_name_mineral                   ?
_chemical_compound_source                ?
_chemical_name_structure_type            CeAl~2~Ga~2~,tI10,139
_chemical_formula_weight                 605.5

# Bibliographic data

_publ_section_title
;
Magnetic properties and structural data of ternary silicides: (RE,Th,U)Os~2~Si~2~ (RE= rare earth)
;
_journal_coden_ASTM                      SSCOA4
_journal_name_full                       'Solid State Commun.'
_journal_year                            1983
_journal_volume                          48
_journal_page_first                      211
_journal_page_last                       215
_journal_language                        English
loop_
 _publ_author_name
 _publ_author_address
'Hiebl K.'
;
Vienna University
Institut fur Physikalische Chemie
Vienna
Austria
;
'Horvath C.'
;
Vienna University
Institut fur Physikalische Chemie
Vienna
Austria
;
'Rogl P.'
;
Vienna University
Institut fur Physikalische Chemie
Vienna
Austria
;
'Sienko M.J.'
;
Cornell University
Baker Laboratory of Chemistry
Ithaca
U.S.A. New York
;

# Standardized crystallographic data

_cell_length_a                           4.124
_cell_length_b                           4.124
_cell_length_c                           9.6211
_cell_angle_alpha                        90
_cell_angle_beta                         90
_cell_angle_gamma                        90
_cell_volume                             163.6
_cell_formula_units_Z                    2
_space_group_IT_number                   139
_space_group_name_H-M_alt                'I 4/m m m'
loop_
 _space_group_symop_id
 _space_group_symop_operation_xyz
 1 'x, y, z'
 2 '-x, -y, -z'
 3 '-x, -y, z'
 4 '-x, y, -z'
 5 '-x, y, z'
 6 '-y, -x, -z'
 7 '-y, -x, z'
 8 '-y, x, -z'
 9 '-y, x, z'
 10 'x, -y, -z'
 11 'x, -y, z'
 12 'x, y, -z'
 13 'y, -x, -z'
 14 'y, -x, z'
 15 'y, x, -z'
 16 'y, x, z'
 17 '1/2+x, 1/2+y, 1/2+z'
 18 '1/2-x, 1/2-y, 1/2-z'
 19 '1/2-x, 1/2-y, 1/2+z'
 20 '1/2-x, 1/2+y, 1/2-z'
 21 '1/2-x, 1/2+y, 1/2+z'
 22 '1/2-y, 1/2-x, 1/2-z'
 23 '1/2-y, 1/2-x, 1/2+z'
 24 '1/2-y, 1/2+x, 1/2-z'
 25 '1/2-y, 1/2+x, 1/2+z'
 26 '1/2+x, 1/2-y, 1/2-z'
 27 '1/2+x, 1/2-y, 1/2+z'
 28 '1/2+x, 1/2+y, 1/2-z'
 29 '1/2+y, 1/2-x, 1/2-z'
 30 '1/2+y, 1/2-x, 1/2+z'
 31 '1/2+y, 1/2+x, 1/2-z'
 32 '1/2+y, 1/2+x, 1/2+z'

# Atomic positions taken from type-defining entry

loop_
 _atom_type_symbol
 Si
 Os
 Tm
loop_
 _atom_site_label
 _atom_site_type_symbol
 _atom_site_symmetry_multiplicity
 _atom_site_Wyckoff_symbol
 _atom_site_fract_x
 _atom_site_fract_y
 _atom_site_fract_z
 _atom_site_occupancy
 Si1 Si 4 e 0 0 0.387 1
 Os1 Os 4 d 0 0.5 0.25 1
 Tm1 Tm 2 a 0 0 0 1


_exptl_crystal_colour                    ?
_exptl_crystal_density_meas              ?
_exptl_crystal_density_diffrn            12.29
_cell_measurement_temperature            ?
_cell_measurement_radiation              'X-rays, Cu Ka1'
_cell_measurement_reflns_used            ?
_diffrn_ambient_temperature              ?
_diffrn_measurement_device               'Guinier film'
_diffrn_measurement_device_type          ?
_diffrn_radiation_type                   ?
_diffrn_reflns_number                    ?
_exptl_absorpt_coefficient_mu            ?
_exptl_absorpt_correction_type           ?
_computing_structure_solution            ?
_refine_ls_number_parameters             ?
_refine_ls_number_reflns                 ?
_refine_ls_R_factor_gt                   ?
_refine_ls_wR_factor_gt                  ?

# End of data set 548699

