##############################################################################
#                                                                            #
# Ho-Pt-Si         # HoPt2Si2                                      #  548768 #
#                                                                            #
##############################################################################
#                                                                            #
#                           Pearson's Crystal Data                           #
#      Crystal Structure Database for Inorganic Compounds (on DVD)           #
#                              Release 2023/24                               #
#                  Editors: Pierre Villars and Karin Cenzual                 #
#                                                                            #
#   Copyright (c) ASM International & Material Phases Data System (MPDS),    #
# Switzerland & National Institute for Materials Science (NIMS), Japan, 2023 #
#                   All rights reserved. Version 2023.07                     #
#                                                                            #
#   This copy of Pearson's Crystal Data is licensed to:                      #
#   Hunter College - City University of New York                             #
#                                                                            #
##############################################################################

data_548768
_audit_creation_date                     2024-02-25
_audit_creation_method
;
Pearson's Crystal Data browser
;
#_database_code_PCD                      548768
_database_code_PDF                       04-005-9103

# Entry summary

_chemical_formula_structural             'Ho Pt~2~ Si~2~'
_chemical_formula_sum                    'Ho Pt2 Si2'
_chemical_name_mineral                   ?
_chemical_compound_source                ?
_chemical_name_structure_type            CaBe~2~Ge~2~,tP10,129
_chemical_formula_weight                 611.3

# Bibliographic data

_publ_section_title
'Crystal structure and magnetic properties of HoPt~2~Si~2~'                   
_journal_coden_ASTM                      SSCOA4
_journal_name_full                       'Solid State Commun.'
_journal_year                            1984
_journal_volume                          52
_journal_page_first                      475
_journal_page_last                       478
_journal_language                        English
loop_
 _publ_author_name
 _publ_author_address
'Leciejewicz J.'
;
Warsaw University of Technology (PW)
Institute of Nuclear Chemistry and Technology
Warsaw
Poland
;
'Szytula A.'
;
Jagiellonian University
M. Smoluchowski Institute of Physics
Cracow
Poland
;
'Slaski M.'
;
Cracow Tadeusz Kosciuszko University of Technology (PK)
Institute of Physics
Cracow
Poland
;
'Zygmunt A.'
;
Polish Academy of Sciences (PAN)
Trzebiatowski W. Institute of Low Temperature and Structure Research
Wroclaw
Poland
;

# Standardized crystallographic data

_cell_length_a                           4.117
_cell_length_b                           4.117
_cell_length_c                           9.739
_cell_angle_alpha                        90
_cell_angle_beta                         90
_cell_angle_gamma                        90
_cell_volume                             165.1
_cell_formula_units_Z                    2
_space_group_IT_number                   129
_space_group_name_H-M_alt                'P 4/n m m (origin choice 2)'
loop_
 _space_group_symop_id
 _space_group_symop_operation_xyz
 1 'x, y, z'
 2 '1/2-x, 1/2-y, z'
 3 '1/2-x, y, z'
 4 '-x, -y, -z'
 5 '-x, 1/2+y, -z'
 6 '1/2-y, 1/2-x, z'
 7 '1/2-y, x, z'
 8 '-y, -x, -z'
 9 '-y, 1/2+x, -z'
 10 '1/2+x, -y, -z'
 11 '1/2+x, 1/2+y, -z'
 12 'x, 1/2-y, z'
 13 '1/2+y, -x, -z'
 14 '1/2+y, 1/2+x, -z'
 15 'y, 1/2-x, z'
 16 'y, x, z'
loop_
 _atom_type_symbol
 Pt
 Si
 Ho
loop_
 _atom_site_label
 _atom_site_type_symbol
 _atom_site_symmetry_multiplicity
 _atom_site_Wyckoff_symbol
 _atom_site_fract_x
 _atom_site_fract_y
 _atom_site_fract_z
 _atom_site_occupancy
 Pt1 Pt 2 c 0.25 0.25 0.1205 1
 Si1 Si 2 c 0.25 0.25 0.3508 1
 Ho Ho 2 c 0.25 0.25 0.7518 1
 Pt2 Pt 2 b 0.75 0.25 0.5 1
 Si2 Si 2 a 0.75 0.25 0 1


_exptl_crystal_colour                    ?
_exptl_crystal_density_meas              ?
_exptl_crystal_density_diffrn            12.30
_cell_measurement_temperature            ?
_cell_measurement_radiation              neutrons
_cell_measurement_wavelength             1.326
_pd_proc_wavelength                      1.326
_cell_measurement_reflns_used            ?
_diffrn_ambient_temperature              ?
_diffrn_measurement_device               'automatic diffractometer'
_diffrn_measurement_device_type
'Poland, Swierk, Institute of Nuclear Research, EWA reactor, DN-500'          
_diffrn_radiation_type                   neutrons
_diffrn_radiation_wavelength             1.326
_diffrn_reflns_number                    ?
_exptl_absorpt_coefficient_mu            ?
_exptl_absorpt_correction_type           ?
_computing_structure_solution            'starting values from the literature'
_refine_ls_number_parameters             ?
_refine_ls_number_reflns                 ?
_refine_ls_R_factor_gt                   ?
_refine_ls_wR_factor_gt                  ?
_pd_proc_ls_proof_R_factor               ?
_pd_proc_ls_proof_wR_factor              ?
_refine_ls_R_I_factor                    0.0815

# End of data set 548768

