##############################################################################
#                                                                            #
# Ir-La-Si         # LaIrSi                                        #  548997 #
#                                                                            #
##############################################################################
#                                                                            #
#                           Pearson's Crystal Data                           #
#      Crystal Structure Database for Inorganic Compounds (on DVD)           #
#                              Release 2023/24                               #
#                  Editors: Pierre Villars and Karin Cenzual                 #
#                                                                            #
#   Copyright (c) ASM International & Material Phases Data System (MPDS),    #
# Switzerland & National Institute for Materials Science (NIMS), Japan, 2023 #
#                   All rights reserved. Version 2023.07                     #
#                                                                            #
#   This copy of Pearson's Crystal Data is licensed to:                      #
#   Hunter College - City University of New York                             #
#                                                                            #
##############################################################################

data_548997
_audit_creation_date                     2024-02-25
_audit_creation_method
;
Pearson's Crystal Data browser
;
#_database_code_PCD                      548997
_database_code_PDF                       04-005-9286

# Entry summary

_chemical_formula_structural             'La Ir Si'
_chemical_formula_sum                    'Ir La Si'
_chemical_name_mineral                   ?
_chemical_compound_source                ?
_chemical_name_structure_type            ZrSO,cP12,198
_chemical_formula_weight                 359.2

# Bibliographic data

_publ_section_title
;
Crystal structure, superconducting and magnetic properties of new ternary silicides LaRhSi, LaIrSi and NdIrSi
;
_journal_coden_ASTM                      SSCOA4
_journal_name_full                       'Solid State Commun.'
_journal_year                            1982
_journal_volume                          41
_journal_page_first                      801
_journal_page_last                       804
_journal_language                        English
loop_
 _publ_author_name
 _publ_author_address
'Chevalier B.'
;
Bordeaux I University
Laboratoire de Chimie du Solide (LCS)
Talence
France
;
'Lejay P.'
;
Bordeaux I University
Laboratoire de Chimie du Solide (LCS)
Talence
France
;
'Cole A.'
;
Bordeaux I University
Laboratoire de Chimie du Solide (LCS)
Talence
France
;
'Vlasse M.'
;
Bordeaux I University
Laboratoire de Chimie du Solide (LCS)
Talence
France
;
'Etourneau J.R.'
;
Bordeaux I University
Laboratoire de Chimie du Solide (LCS)
Talence
France
;

# Standardized crystallographic data

_cell_length_a                           6.337
_cell_length_b                           6.337
_cell_length_c                           6.337
_cell_angle_alpha                        90
_cell_angle_beta                         90
_cell_angle_gamma                        90
_cell_volume                             254.5
_cell_formula_units_Z                    4
_space_group_IT_number                   198
_space_group_name_H-M_alt                'P 21 3'
loop_
 _space_group_symop_id
 _space_group_symop_operation_xyz
 1 'x, y, z'
 2 '1/2-x, -y, 1/2+z'
 3 '-x, 1/2+y, 1/2-z'
 4 '1/2-y, -z, 1/2+x'
 5 '-y, 1/2+z, 1/2-x'
 6 '1/2-z, -x, 1/2+y'
 7 '-z, 1/2+x, 1/2-y'
 8 '1/2+x, 1/2-y, -z'
 9 '1/2+y, 1/2-z, -x'
 10 'y, z, x'
 11 '1/2+z, 1/2-x, -y'
 12 'z, x, y'
loop_
 _atom_type_symbol
 Ir
 La
 Si
loop_
 _atom_site_label
 _atom_site_type_symbol
 _atom_site_symmetry_multiplicity
 _atom_site_Wyckoff_symbol
 _atom_site_fract_x
 _atom_site_fract_y
 _atom_site_fract_z
 _atom_site_occupancy
 Ir Ir 4 a 0.077 0.077 0.077 1
 La La 4 a 0.365 0.365 0.365 1
 Si Si 4 a 0.674 0.674 0.674 1


_exptl_crystal_colour                    ?
_exptl_crystal_density_meas              9.18(9)
_exptl_crystal_density_diffrn            9.38
_cell_measurement_temperature            ?
_cell_measurement_radiation              'X-rays, Cu Ka'
_cell_measurement_reflns_used            ?
_diffrn_ambient_temperature              ?
_diffrn_measurement_device               'Guinier-Haegg film'
_diffrn_measurement_device_type          ?
_diffrn_radiation_type                   'X-rays, Cu Ka'
_diffrn_reflns_number                    ?
_exptl_absorpt_coefficient_mu            ?
_exptl_absorpt_correction_type           ?
_computing_structure_solution            'starting values from the literature'
_refine_ls_number_parameters             ?
_refine_ls_number_reflns                 ?
_refine_ls_R_factor_gt                   ?
_refine_ls_wR_factor_gt                  ?
_pd_proc_ls_proof_R_factor               ?
_pd_proc_ls_proof_wR_factor              ?
_refine_ls_R_I_factor                    0.12

# Published diffraction lines

loop_
 _refln_index_h
 _refln_index_k
 _refln_index_l
 _refln_d_spacing
 _refln_intensity_meas
 1 1 0 4.481 4
 1 1 1 3.661 25
 2 0 0 3.169 9
 2 1 0 2.839 100
 2 1 1 2.59 71
 2 2 0 2.24 10
 2 2 1 2.112 24
 3 1 0 2.002 16
 3 1 1 1.91 25
 3 2 0 1.756 5
 3 2 1 1.692 65
 4 0 0 1.583 10
 4 1 0 1.536 26
 4 1 1 1.493 6
 3 3 1 1.453 18
 4 2 1 1.382 24
 3 3 2 1.35 1
 4 2 2 1.294 11
 4 3 0 1.267 11
 5 1 0 1.243 14
 5 1 1 1.22 7
 5 2 0 1.177 16
 5 2 1 1.157 3
 4 4 0 1.121 1

# End of data set 548997

