##############################################################################
#                                                                            #
# Fe-Ge-Pr         # Pr4Fe0.85Ge7                                  #  552077 #
#                                                                            #
##############################################################################
#                                                                            #
#                           Pearson's Crystal Data                           #
#      Crystal Structure Database for Inorganic Compounds (on DVD)           #
#                              Release 2023/24                               #
#                  Editors: Pierre Villars and Karin Cenzual                 #
#                                                                            #
#   Copyright (c) ASM International & Material Phases Data System (MPDS),    #
# Switzerland & National Institute for Materials Science (NIMS), Japan, 2023 #
#                   All rights reserved. Version 2023.07                     #
#                                                                            #
#   This copy of Pearson's Crystal Data is licensed to:                      #
#   Hunter College - City University of New York                             #
#                                                                            #
##############################################################################

data_552077
_audit_creation_date                     2024-02-24
_audit_creation_method
;
Pearson's Crystal Data browser
;
#_database_code_PCD                      552077
_database_code_PDF                       04-006-1364

# Entry summary

_chemical_formula_structural             'Pr~4~ Fe~0.85~ Ge~7~'
_chemical_formula_sum                    'Fe0.85 Ge7 Pr4'
_chemical_name_mineral                   ?
_chemical_compound_source                ?
_chemical_name_structure_type            Sm~4~Co~0.64~Ge~7~,oS24,38
_chemical_formula_weight                 1119.2

# Bibliographic data

_publ_section_title
'Isothermal section of the Pr-Fe-Ge phase diagram at 870 K'                   
_journal_coden_ASTM                      INOMAF
_journal_name_full                       'Inorg. Mater.'
_journal_year                            1993
_journal_volume                          29
_journal_page_first                      72
_journal_page_last                       74
_journal_language                        English
loop_
 _publ_author_name
 _publ_author_address
'Fedyna M.F.'
;
Lviv Ivan Franko State University
Lviv
Ukraine
;
'Bodak O.I.'
;
Lviv Ivan Franko State University
Department of Inorganic Chemistry
Lviv
Ukraine
;
'Pecharskii V.K.'
;
Lviv Ivan Franko State University
Department of Inorganic Chemistry
Lviv
Ukraine
;

# Standardized crystallographic data

_cell_length_a                           4.1278
_cell_length_b                           4.2167
_cell_length_c                           30.52
_cell_angle_alpha                        90
_cell_angle_beta                         90
_cell_angle_gamma                        90
_cell_volume                             531.2
_cell_formula_units_Z                    2
_space_group_IT_number                   38
_space_group_name_H-M_alt                'A m m 2'
loop_
 _space_group_symop_id
 _space_group_symop_operation_xyz
 1 'x, y, z'
 2 '-x, -y, z'
 3 '-x, y, z'
 4 'x, -y, z'
 5 'x, 1/2+y, 1/2+z'
 6 '-x, 1/2-y, 1/2+z'
 7 '-x, 1/2+y, 1/2+z'
 8 'x, 1/2-y, 1/2+z'

# Atomic positions taken from type-defining entry

loop_
 _atom_type_symbol
 Ge
 Pr
 Fe
loop_
 _atom_site_label
 _atom_site_type_symbol
 _atom_site_symmetry_multiplicity
 _atom_site_Wyckoff_symbol
 _atom_site_fract_x
 _atom_site_fract_y
 _atom_site_fract_z
 _atom_site_occupancy
 Ge1 Ge 2 b 0.5 0 0.1048 1
 Ge2 Ge 2 b 0.5 0 0.2665 1
 Pr1 Pr 2 b 0.5 0 0.5284 1
 Ge3 Ge 2 b 0.5 0 0.713 1
 Pr2 Pr 2 b 0.5 0 0.9165 1
 Ge4 Ge 2 a 0 0 0.0 1
 Fe1 Fe 2 a 0 0 0.0745 1
 Pr3 Pr 2 a 0 0 0.1832 1
 Ge5 Ge 2 a 0 0 0.368 1
 Ge6 Ge 2 a 0 0 0.4521 1
 Ge7 Ge 2 a 0 0 0.6038 1
 Pr4 Pr 2 a 0 0 0.7966 1


_exptl_crystal_colour                    ?
_exptl_crystal_density_meas              ?
_exptl_crystal_density_diffrn            7.00
_cell_measurement_temperature            ?
_cell_measurement_radiation              'X-rays, Cu Ka'
_cell_measurement_reflns_used            ?
_diffrn_ambient_temperature              ?
_diffrn_measurement_device               film
_diffrn_measurement_device_type          ?
_diffrn_radiation_type                   ?
_diffrn_reflns_number                    ?
_exptl_absorpt_coefficient_mu            ?
_exptl_absorpt_correction_type           ?
_computing_structure_solution            ?
_refine_ls_number_parameters             ?
_refine_ls_number_reflns                 ?
_refine_ls_R_factor_gt                   ?
_refine_ls_wR_factor_gt                  ?

# End of data set 552077

