##############################################################################
#                                                                            #
# Co-Sn-U          # UCo1.5Sn2                                     #  552343 #
#                                                                            #
##############################################################################
#                                                                            #
#                           Pearson's Crystal Data                           #
#      Crystal Structure Database for Inorganic Compounds (on DVD)           #
#                              Release 2023/24                               #
#                  Editors: Pierre Villars and Karin Cenzual                 #
#                                                                            #
#   Copyright (c) ASM International & Material Phases Data System (MPDS),    #
# Switzerland & National Institute for Materials Science (NIMS), Japan, 2023 #
#                   All rights reserved. Version 2023.07                     #
#                                                                            #
#   This copy of Pearson's Crystal Data is licensed to:                      #
#   Hunter College - City University of New York                             #
#                                                                            #
##############################################################################

data_552343
_audit_creation_date                     2024-02-24
_audit_creation_method
;
Pearson's Crystal Data browser
;
#_database_code_PCD                      552343
_database_code_PDF                       04-006-1551

# Entry summary

_chemical_formula_structural             'U Co~1.45~ Sn~2~'
_chemical_formula_sum                    'Co1.45 Sn2 U'
_chemical_name_mineral                   ?
_chemical_compound_source                ?
_chemical_name_structure_type            CaBe~2~Ge~2~,tP10,129
_chemical_formula_weight                 560.9

# Bibliographic data

_publ_section_title
'Magnetic behaviour of the ternary stannide UCo~1.45+-0.03~Sn~2~'             
_journal_coden_ASTM                      SSCOA4
_journal_name_full                       'Solid State Commun.'
_journal_year                            1992
_journal_volume                          82
_journal_page_first                      25
_journal_page_last                       28
_journal_language                        English
loop_
 _publ_author_name
 _publ_author_address
'Mirambet F.'
;
Bordeaux I University
Laboratoire de Chimie du Solide (LCS)
Talence
France
;
'Chevalier B.'
;
Bordeaux I University
Laboratoire de Chimie du Solide (LCS)
Talence
France
;
'Gravereau P.'
;
Bordeaux I University
Laboratoire de Chimie du Solide (LCS)
Talence
France
;
'Etourneau J.R.'
;
Bordeaux I University
Laboratoire de Chimie du Solide (LCS)
Talence
France
;

# Standardized crystallographic data

_cell_length_a                           4.3859
_cell_length_b                           4.3859
_cell_length_c                           9.0749
_cell_angle_alpha                        90
_cell_angle_beta                         90
_cell_angle_gamma                        90
_cell_volume                             174.6
_cell_formula_units_Z                    2
_space_group_IT_number                   129
_space_group_name_H-M_alt                'P 4/n m m (origin choice 2)'
loop_
 _space_group_symop_id
 _space_group_symop_operation_xyz
 1 'x, y, z'
 2 '1/2-x, 1/2-y, z'
 3 '1/2-x, y, z'
 4 '-x, -y, -z'
 5 '-x, 1/2+y, -z'
 6 '1/2-y, 1/2-x, z'
 7 '1/2-y, x, z'
 8 '-y, -x, -z'
 9 '-y, 1/2+x, -z'
 10 '1/2+x, -y, -z'
 11 '1/2+x, 1/2+y, -z'
 12 'x, 1/2-y, z'
 13 '1/2+y, -x, -z'
 14 '1/2+y, 1/2+x, -z'
 15 'y, 1/2-x, z'
 16 'y, x, z'

# Atomic positions taken from type-defining entry

loop_
 _atom_type_symbol
 Co
 Sn
 U
loop_
 _atom_site_label
 _atom_site_type_symbol
 _atom_site_symmetry_multiplicity
 _atom_site_Wyckoff_symbol
 _atom_site_fract_x
 _atom_site_fract_y
 _atom_site_fract_z
 _atom_site_occupancy
 Co1 Co 2 c 0.25 0.25 0.108 0.450
 Sn1 Sn 2 c 0.25 0.25 0.368 1
 U1 U 2 c 0.25 0.25 0.749 1
 Co2 Co 2 b 0.75 0.25 0.5 1
 Sn2 Sn 2 a 0.75 0.25 0 1


_exptl_crystal_colour                    ?
_exptl_crystal_density_meas              10.27(10)
_exptl_crystal_density_diffrn            10.67
_cell_measurement_temperature            ?
_cell_measurement_radiation              'X-rays, Cu Ka'
_cell_measurement_reflns_used            ?
_diffrn_ambient_temperature              ?
_diffrn_measurement_device               film
_diffrn_measurement_device_type          ?
_diffrn_radiation_type                   ?
_diffrn_reflns_number                    ?
_exptl_absorpt_coefficient_mu            ?
_exptl_absorpt_correction_type           ?
_computing_structure_solution            ?
_refine_ls_number_parameters             ?
_refine_ls_number_reflns                 ?
_refine_ls_R_factor_gt                   ?
_refine_ls_wR_factor_gt                  ?

# Published diffraction lines

loop_
 _refln_index_h
 _refln_index_k
 _refln_index_l
 _refln_d_spacing
 _refln_intensity_meas
 0 0 1 9.084 2
 0 0 2 4.544 2
 1 0 1 3.952 5
 1 1 0 3.098 5
 0 0 3 3.024 3
 1 1 1 2.933 5
 1 1 2 2.56 8
 1 0 3 2.491 5
 0 0 4 2.267 3
 2 0 0 2.193 7
 1 1 3 2.165 3
 2 0 1 2.13 2
 1 0 4 2.024 2
 2 0 2 1.973 2
 2 1 1 1.92 2
 2 0 3 1.776 5
 1 0 5 1.678 3
 2 1 3 1.647 5
 2 0 4 1.577 3
 1 1 5 1.567 3
 2 2 0 1.551 5
 2 2 2 1.468 2
 3 0 1 1.443 2
 1 0 6 1.43 2
 2 0 5 1.398 2
 3 1 0 1.387 2
 2 2 3 1.38 2
 3 1 1 1.371 2
 1 1 6 1.359 2
 2 1 5 1.332 3
 3 1 2 1.326 5
 3 0 3 1.317 2
 2 2 4 1.28 3

# End of data set 552343

