##############################################################################
#                                                                            #
# Ce-Ge-Ni         # CeNi2Ge2 m                                    #  555467 #
#                                                                            #
##############################################################################
#                                                                            #
#                           Pearson's Crystal Data                           #
#      Crystal Structure Database for Inorganic Compounds (on DVD)           #
#                              Release 2023/24                               #
#                  Editors: Pierre Villars and Karin Cenzual                 #
#                                                                            #
#   Copyright (c) ASM International & Material Phases Data System (MPDS),    #
# Switzerland & National Institute for Materials Science (NIMS), Japan, 2023 #
#                   All rights reserved. Version 2023.07                     #
#                                                                            #
#   This copy of Pearson's Crystal Data is licensed to:                      #
#   Hunter College - City University of New York                             #
#                                                                            #
##############################################################################

data_555467
_audit_creation_date                     2024-02-24
_audit_creation_method
;
Pearson's Crystal Data browser
;
#_database_code_PCD                      555467
_database_code_PDF                       04-006-4202

# Entry summary

_chemical_formula_structural             'Ce Ni~2~ Ge~2~'
_chemical_formula_sum                    'Ce Ge2 Ni2'
_chemical_name_mineral                   ?
_chemical_compound_source                ?
_chemical_name_structure_type            CaBe~2~Ge~2~,tP10,129
_chemical_formula_weight                 402.7

# Bibliographic data

_publ_section_title
'Alloying experiments on heavy fermion compounds'                             
_journal_coden_ASTM                      JMMMDC
_journal_name_full                       'J. Magn. Magn. Mater.'
_journal_year                            1990
_journal_volume                          84
_journal_page_first                      271
_journal_page_last                       280
_journal_language                        English
loop_
 _publ_author_name
 _publ_author_address
'Steglich F.'
;
Darmstadt Technical University (TU Darmstadt)
Institut fur Festkorperphysik
Darmstadt
Germany
;
'Ahlheim U.'
;
Darmstadt Technical University (TU Darmstadt)
Institut fur Festkorperphysik
Darmstadt
Germany
;
'Schank C.'
;
Darmstadt Technical University (TU Darmstadt)
Institut fur Festkorperphysik
Darmstadt
Germany
;
'Geibel C.'
;
Darmstadt Technical University (TU Darmstadt)
Institut fur Festkorperphysik
Darmstadt
Germany
;
'Horn S.R.'
;
Darmstadt Technical University (TU Darmstadt)
Institut fur Festkorperphysik
Darmstadt
Germany
;
'Lang M.'
;
Darmstadt Technical University (TU Darmstadt)
Institut fur Festkorperphysik
Darmstadt
Germany
;
'Sparn G.'
;
Darmstadt Technical University (TU Darmstadt)
Institut fur Festkorperphysik
Darmstadt
Germany
;
'Loidl A.'
;
Mainz Johannes Gutenberg University (JGU)
Institut fur Physik
Mainz
Germany
;
'Krimmel A.'
;
Mainz Johannes Gutenberg University (JGU)
Institut fur Physik
Mainz
Germany
;

# Standardized crystallographic data

_cell_length_a                           4.15
_cell_length_b                           4.15
_cell_length_c                           9.84
_cell_angle_alpha                        90
_cell_angle_beta                         90
_cell_angle_gamma                        90
_cell_volume                             169.5
_cell_formula_units_Z                    2
_space_group_IT_number                   129
_space_group_name_H-M_alt                'P 4/n m m (origin choice 2)'
loop_
 _space_group_symop_id
 _space_group_symop_operation_xyz
 1 'x, y, z'
 2 '1/2-x, 1/2-y, z'
 3 '1/2-x, y, z'
 4 '-x, -y, -z'
 5 '-x, 1/2+y, -z'
 6 '1/2-y, 1/2-x, z'
 7 '1/2-y, x, z'
 8 '-y, -x, -z'
 9 '-y, 1/2+x, -z'
 10 '1/2+x, -y, -z'
 11 '1/2+x, 1/2+y, -z'
 12 'x, 1/2-y, z'
 13 '1/2+y, -x, -z'
 14 '1/2+y, 1/2+x, -z'
 15 'y, 1/2-x, z'
 16 'y, x, z'

# Atomic positions taken from type-defining entry

loop_
 _atom_type_symbol
 Ni
 Ge
 Ce
loop_
 _atom_site_label
 _atom_site_type_symbol
 _atom_site_symmetry_multiplicity
 _atom_site_Wyckoff_symbol
 _atom_site_fract_x
 _atom_site_fract_y
 _atom_site_fract_z
 _atom_site_occupancy
 Ni1 Ni 2 c 0.25 0.25 0.108 1
 Ge1 Ge 2 c 0.25 0.25 0.368 1
 Ce1 Ce 2 c 0.25 0.25 0.749 1
 Ni2 Ni 2 b 0.75 0.25 0.5 1
 Ge2 Ge 2 a 0.75 0.25 0 1


_exptl_crystal_colour                    ?
_exptl_crystal_density_meas              ?
_exptl_crystal_density_diffrn            7.89
_cell_measurement_temperature            ?
_cell_measurement_radiation              'X-rays, Cu Ka'
_cell_measurement_reflns_used            ?
_diffrn_ambient_temperature              ?
_diffrn_measurement_device               'automatic diffractometer'
_diffrn_measurement_device_type          ?
_diffrn_radiation_type                   ?
_diffrn_reflns_number                    ?
_exptl_absorpt_coefficient_mu            ?
_exptl_absorpt_correction_type           ?
_computing_structure_solution            ?
_refine_ls_number_parameters             ?
_refine_ls_number_reflns                 ?
_refine_ls_R_factor_gt                   ?
_refine_ls_wR_factor_gt                  ?

# End of data set 555467

