##############################################################################
#                                                                            #
# Pd-Sn-U          # UPdSn rt                                      #  555741 #
#                                                                            #
##############################################################################
#                                                                            #
#                           Pearson's Crystal Data                           #
#      Crystal Structure Database for Inorganic Compounds (on DVD)           #
#                              Release 2023/24                               #
#                  Editors: Pierre Villars and Karin Cenzual                 #
#                                                                            #
#   Copyright (c) ASM International & Material Phases Data System (MPDS),    #
# Switzerland & National Institute for Materials Science (NIMS), Japan, 2023 #
#                   All rights reserved. Version 2023.07                     #
#                                                                            #
#   This copy of Pearson's Crystal Data is licensed to:                      #
#   Hunter College - City University of New York                             #
#                                                                            #
##############################################################################

data_555741
_audit_creation_date                     2024-02-25
_audit_creation_method
;
Pearson's Crystal Data browser
;
#_database_code_PCD                      555741
_database_code_PDF                       04-006-4441

# Entry summary

_chemical_formula_structural             'U Pd Sn'
_chemical_formula_sum                    'Pd Sn U'
_chemical_name_mineral                   ?
_chemical_compound_source                ?
_chemical_name_structure_type            LiGaGe,hP6,186
_chemical_formula_weight                 463.1

# Bibliographic data

_publ_section_title
'X-ray and neutron diffraction studies of UPdSn'                              
_journal_coden_ASTM                      JMMMDC
_journal_name_full                       'J. Magn. Magn. Mater.'
_journal_year                            1995
_journal_volume                          151
_journal_page_first                      102
_journal_page_last                       110
_journal_language                        English
loop_
 _publ_author_name
 _publ_author_address
'Troc R.'
;
Polish Academy of Sciences (PAN)
Trzebiatowski W. Institute of Low Temperature and Structure Research
Wroclaw
Poland
;
'Tran V.H.'
;
Polish Academy of Sciences (PAN)
Trzebiatowski W. Institute of Low Temperature and Structure Research
Wroclaw
Poland
;
'Kolenda M.'
;
Jagiellonian University
M. Smoluchowski Institute of Physics
Cracow
Poland
;
'Kruk R.'
;
Jagiellonian University
M. Smoluchowski Institute of Physics
Cracow
Poland
;
'Latka K.'
;
Jagiellonian University
M. Smoluchowski Institute of Physics
Cracow
Poland
;
'Szytula A.'
;
Jagiellonian University
M. Smoluchowski Institute of Physics
Cracow
Poland
;
'Rossat Mignod J.M.'
;
National Center for Scientific Research (CNRS)
Laboratoire Leon Brillouin (LLB)
Gif-sur-Yvette
France
;
'Bonnet M.'
;
Atomic Energy Commission (CEA)
Departement de Recherche Fondamentale sur la Matiere Condensee (DRFMC)
Grenoble
France
;
'Buchner B.'
;
Cologne University
Institut fur Physik
Cologne
Germany
;

# Standardized crystallographic data

_cell_length_a                           4.5922
_cell_length_b                           4.5922
_cell_length_c                           7.2726
_cell_angle_alpha                        90
_cell_angle_beta                         90
_cell_angle_gamma                        120
_cell_volume                             132.8
_cell_formula_units_Z                    2
_space_group_IT_number                   186
_space_group_name_H-M_alt                'P 63 m c'
loop_
 _space_group_symop_id
 _space_group_symop_operation_xyz
 1 'x, y, z'
 2 '-x+y, -x, z'
 3 '-x+y, y, z'
 4 '-x, -x+y, 1/2+z'
 5 '-x, -y, 1/2+z'
 6 '-y, -x, z'
 7 '-y, x-y, z'
 8 'x, x-y, z'
 9 'x-y, -y, 1/2+z'
 10 'x-y, x, 1/2+z'
 11 'y, -x+y, 1/2+z'
 12 'y, x, 1/2+z'
loop_
 _atom_type_symbol
 Sn
 Pd
 U
loop_
 _atom_site_label
 _atom_site_type_symbol
 _atom_site_symmetry_multiplicity
 _atom_site_Wyckoff_symbol
 _atom_site_fract_x
 _atom_site_fract_y
 _atom_site_fract_z
 _atom_site_occupancy
 Sn Sn 2 b 0.333333 0.666667 0.266 1
 Pd Pd 2 b 0.333333 0.666667 0.6713 1
 U U 2 a 0 0 0.0 1


_exptl_crystal_colour                    ?
_exptl_crystal_density_meas              ?
_exptl_crystal_density_diffrn            11.58
_cell_measurement_temperature            40
_cell_measurement_radiation              neutrons
_cell_measurement_wavelength             2.485
_pd_proc_wavelength                      2.485
_cell_measurement_reflns_used            ?
_diffrn_ambient_temperature              40
_diffrn_measurement_device               'automatic diffractometer'
_diffrn_measurement_device_type
;
France, Grenoble, Centre d'Etudes Nucleaires CEN, SILOE reactor, DN5
;
_diffrn_radiation_type                   neutrons
_diffrn_radiation_wavelength             2.485
_diffrn_reflns_number                    ?
_exptl_absorpt_coefficient_mu            ?
_exptl_absorpt_correction_type           ?
_computing_structure_solution            'starting values from the literature'
_refine_ls_number_parameters             ?
_refine_ls_number_reflns                 ?
_refine_ls_R_factor_gt                   ?
_refine_ls_wR_factor_gt                  ?
_pd_proc_ls_proof_R_factor               0.104
_pd_proc_ls_proof_wR_factor              ?
_refine_ls_R_I_factor                    ?

# End of data set 555741

