##############################################################################
#                                                                            #
# Ce-Ni-Sn         # CeNiSn                                        #  557858 #
#                                                                            #
##############################################################################
#                                                                            #
#                           Pearson's Crystal Data                           #
#      Crystal Structure Database for Inorganic Compounds (on DVD)           #
#                              Release 2023/24                               #
#                  Editors: Pierre Villars and Karin Cenzual                 #
#                                                                            #
#   Copyright (c) ASM International & Material Phases Data System (MPDS),    #
# Switzerland & National Institute for Materials Science (NIMS), Japan, 2023 #
#                   All rights reserved. Version 2023.07                     #
#                                                                            #
#   This copy of Pearson's Crystal Data is licensed to:                      #
#   Hunter College - City University of New York                             #
#                                                                            #
##############################################################################

data_557858
_audit_creation_date                     2024-02-24
_audit_creation_method
;
Pearson's Crystal Data browser
;
#_database_code_PCD                      557858
_database_code_PDF                       04-009-1152

# Entry summary

_chemical_formula_structural             'Ce Ni Sn'
_chemical_formula_sum                    'Ce Ni Sn'
_chemical_name_mineral                   ?
_chemical_compound_source                ?
_chemical_name_structure_type            CeNiSn,oP12,33
_chemical_formula_weight                 317.5

# Bibliographic data

_publ_section_title
'Thermal Conductivity of CeNiSn Single Crystals'                              
_journal_coden_ASTM                      JUPSAU
_journal_name_full                       'J. Phys. Soc. Jpn.'
_journal_year                            1991
_journal_volume                          60
_journal_page_first                      2514
_journal_page_last                       2517
_journal_language                        English
loop_
 _publ_author_name
 _publ_author_address
'Isikawa Y.'
;
Toyama University
College of Liberal Arts
Toyama / Toyama
Japan
;
'Mori K.'
;
Toyama University
College of Liberal Arts
Toyama / Toyama
Japan
;
'Ogiso Y.'
;
Toyama University
Department of Physics
Toyama / Toyama
Japan
;
'Oyabe K.'
;
Toyama University
Department of Physics
Toyama / Toyama
Japan
;
'Sato K.'
;
Toyama University
Department of Physics
Toyama / Toyama
Japan
;

# Standardized crystallographic data

_cell_length_a                           7.535
_cell_length_b                           7.605
_cell_length_c                           4.6
_cell_angle_alpha                        90
_cell_angle_beta                         90
_cell_angle_gamma                        90
_cell_volume                             263.6
_cell_formula_units_Z                    4
_space_group_IT_number                   33
_space_group_name_H-M_alt                'P n a 21'
loop_
 _space_group_symop_id
 _space_group_symop_operation_xyz
 1 'x, y, z'
 2 '1/2-x, 1/2+y, 1/2+z'
 3 '-x, -y, 1/2+z'
 4 '1/2+x, 1/2-y, z'

# Atomic positions taken from type-defining entry

loop_
 _atom_type_symbol
 Ce
 Ni
 Sn
loop_
 _atom_site_label
 _atom_site_type_symbol
 _atom_site_symmetry_multiplicity
 _atom_site_Wyckoff_symbol
 _atom_site_fract_x
 _atom_site_fract_y
 _atom_site_fract_z
 _atom_site_occupancy
 Ce1 Ce 4 a 0.01835 0.30299 0.5021 1
 Ni1 Ni 4 a 0.1892 0.0821 0.0 1
 Sn1 Sn 4 a 0.31428 0.40924 0.0088 1


_exptl_crystal_colour                    ?
_exptl_crystal_density_meas              ?
_exptl_crystal_density_diffrn            8.00
_cell_measurement_temperature            ?
_cell_measurement_radiation              X-rays
_cell_measurement_reflns_used            ?
_diffrn_ambient_temperature              ?
_diffrn_measurement_device               'automatic diffractometer'
_diffrn_measurement_device_type          ?
_diffrn_radiation_type                   ?
_diffrn_reflns_number                    ?
_exptl_absorpt_coefficient_mu            ?
_exptl_absorpt_correction_type           ?
_computing_structure_solution            ?
_refine_ls_number_parameters             ?
_refine_ls_number_reflns                 ?
_refine_ls_R_factor_gt                   ?
_refine_ls_wR_factor_gt                  ?

# End of data set 557858

