##############################################################################
#                                                                            #
# Fe-Pr-Si         # PrFeSi2                                       #  558847 #
#                                                                            #
##############################################################################
#                                                                            #
#                           Pearson's Crystal Data                           #
#      Crystal Structure Database for Inorganic Compounds (on DVD)           #
#                              Release 2023/24                               #
#                  Editors: Pierre Villars and Karin Cenzual                 #
#                                                                            #
#   Copyright (c) ASM International & Material Phases Data System (MPDS),    #
# Switzerland & National Institute for Materials Science (NIMS), Japan, 2023 #
#                   All rights reserved. Version 2023.07                     #
#                                                                            #
#   This copy of Pearson's Crystal Data is licensed to:                      #
#   Hunter College - City University of New York                             #
#                                                                            #
##############################################################################

data_558847
_audit_creation_date                     2024-02-24
_audit_creation_method
;
Pearson's Crystal Data browser
;
#_database_code_PCD                      558847
_database_code_PDF                       04-006-6700

# Entry summary

_chemical_formula_structural             'Pr Fe Si~2~'
_chemical_formula_sum                    'Fe Pr Si2'
_chemical_name_mineral                   ?
_chemical_compound_source                ?
_chemical_name_structure_type            LaMnSi~2~,oS16,63
_chemical_formula_weight                 252.9

# Bibliographic data

_publ_section_title
;
Magnetic structures of PrFeSi~2~ and NdFeSi~2~ from neutron and Mossbauer studies
;
_journal_coden_ASTM                      PRBMDO
_journal_name_full
'Phys. Rev. B: Condens. Matter Mater. Phys.'                                  
_journal_year                            1990
_journal_volume                          41
_journal_page_first                      4700
_journal_page_last                       4712
_journal_language                        English
loop_
 _publ_author_name
 _publ_author_address
'Malaman B.'
;
Nancy I Henri Poincare University
Laboratoire de Chimie du Solide Mineral (LCSM)
Vandoeuvre-les-Nancy
France
;
'Venturini G.'
;
Nancy I Henri Poincare University
Laboratoire de Chimie du Solide Mineral (LCSM)
Vandoeuvre-les-Nancy
France
;
'Le Caer G.'
;
Ecole Nationale Superieure des Mines de Nancy (ENSMN)
Laboratoire de Science et Genie des Materiaux Metalliques (LSG2M)
Nancy
France
;
'Pontonnier L.'
;
National Center for Scientific Research (CNRS)
Laboratoire de Cristallographie
Grenoble
France
;
'Fruchart D.'
;
National Center for Scientific Research (CNRS)
Laboratoire de Cristallographie
Grenoble
France
;
'Tomala K.'
;
Jagiellonian University
M. Smoluchowski Institute of Physics
Cracow
Poland
;
'Sanchez J.P.'
;
Strasbourg University
Laboratoire de Physique et Chimie des Materiaux
Strasbourg
France
;

# Standardized crystallographic data

_cell_length_a                           4.103
_cell_length_b                           17.04
_cell_length_c                           4.016
_cell_angle_alpha                        90
_cell_angle_beta                         90
_cell_angle_gamma                        90
_cell_volume                             280.8
_cell_formula_units_Z                    4
_space_group_IT_number                   63
_space_group_name_H-M_alt                'C m c m'
loop_
 _space_group_symop_id
 _space_group_symop_operation_xyz
 1 'x, y, z'
 2 '-x, -y, -z'
 3 '-x, -y, 1/2+z'
 4 '-x, y, 1/2-z'
 5 '-x, y, z'
 6 'x, -y, -z'
 7 'x, -y, 1/2+z'
 8 'x, y, 1/2-z'
 9 '1/2+x, 1/2+y, z'
 10 '1/2-x, 1/2-y, -z'
 11 '1/2-x, 1/2-y, 1/2+z'
 12 '1/2-x, 1/2+y, 1/2-z'
 13 '1/2-x, 1/2+y, z'
 14 '1/2+x, 1/2-y, -z'
 15 '1/2+x, 1/2-y, 1/2+z'
 16 '1/2+x, 1/2+y, 1/2-z'
loop_
 _atom_type_symbol
 Si
 Pr
 Fe
loop_
 _atom_site_label
 _atom_site_type_symbol
 _atom_site_symmetry_multiplicity
 _atom_site_Wyckoff_symbol
 _atom_site_fract_x
 _atom_site_fract_y
 _atom_site_fract_z
 _atom_site_occupancy
 Si1 Si 4 c 0 0.0358 0.25 1
 Si2 Si 4 c 0 0.18 0.25 1
 Pr Pr 4 c 0 0.3961 0.25 1
 Fe Fe 4 c 0 0.7493 0.25 1


_exptl_crystal_colour                    ?
_exptl_crystal_density_meas              ?
_exptl_crystal_density_diffrn            5.98
_cell_measurement_temperature            1.5
_cell_measurement_radiation              neutrons
_cell_measurement_wavelength             2.513
_pd_proc_wavelength                      2.513
_cell_measurement_reflns_used            ?
_diffrn_ambient_temperature              1.5
_diffrn_measurement_device               diffractometer
_diffrn_measurement_device_type
'France, Grenoble, Institut Laue-Langevin ILL, D1B'                           
_diffrn_radiation_type                   neutrons
_diffrn_radiation_wavelength             2.513
_diffrn_reflns_number                    ?
_exptl_absorpt_coefficient_mu            ?
_exptl_absorpt_correction_type           ?
_computing_structure_solution            'starting values from the literature'
_refine_ls_number_parameters             ?
_refine_ls_number_reflns                 ?
_refine_ls_R_factor_gt                   ?
_refine_ls_wR_factor_gt                  0.007
_pd_proc_ls_proof_R_factor               ?
_pd_proc_ls_proof_wR_factor              ?
_refine_ls_R_I_factor                    ?

# End of data set 558847

