##############################################################################
#                                                                            #
# Ga-Pt-Yb         # YbPtGa                                        #  560432 #
#                                                                            #
##############################################################################
#                                                                            #
#                           Pearson's Crystal Data                           #
#      Crystal Structure Database for Inorganic Compounds (on DVD)           #
#                              Release 2023/24                               #
#                  Editors: Pierre Villars and Karin Cenzual                 #
#                                                                            #
#   Copyright (c) ASM International & Material Phases Data System (MPDS),    #
# Switzerland & National Institute for Materials Science (NIMS), Japan, 2023 #
#                   All rights reserved. Version 2023.07                     #
#                                                                            #
#   This copy of Pearson's Crystal Data is licensed to:                      #
#   Hunter College - City University of New York                             #
#                                                                            #
##############################################################################

data_560432
_audit_creation_date                     2024-02-24
_audit_creation_method
;
Pearson's Crystal Data browser
;
#_database_code_PCD                      560432
_database_code_PDF                       04-006-7677

# Entry summary

_chemical_formula_structural             'Yb Pt Ga'
_chemical_formula_sum                    'Ga Pt Yb'
_chemical_name_mineral                   ?
_chemical_compound_source                ?
_chemical_name_structure_type            TiNiSi,oP12,62
_chemical_formula_weight                 437.8

# Bibliographic data

_publ_section_title
'Kondo and crystal-field effects in the compound YbPtGa'                      
_journal_coden_ASTM                      PRBMDO
_journal_name_full
'Phys. Rev. B: Condens. Matter Mater. Phys.'                                  
_journal_year                            1994
_journal_volume                          50
_journal_page_first                      248
_journal_page_last                       251
_journal_language                        English
loop_
 _publ_author_name
 _publ_author_address
'Adroja D.T.'
;
Southampton University
Department of Physics
Southampton
United Kingdom
;
'Rainford B.D.'
;
Southampton University
Department of Physics
Southampton
United Kingdom
;
'Malik S.K.'
;
Tata Institute of Fundamental Research (TIFR)
Mumbai / Maharashtra
India
;
'Gailloux M.'
;
Iowa State University of Science and Technology (ISU)
Ames National Laboratory - Department of Materials Science and Engineering
Ames
U.S.A. Iowa
;
'Gschneidner K.A. Jr.'
;
Iowa State University of Science and Technology (ISU)
Ames National Laboratory - Department of Materials Science and Engineering
Ames
U.S.A. Iowa
;

# Standardized crystallographic data

_cell_length_a                           6.7303
_cell_length_b                           4.3451
_cell_length_c                           7.5844
_cell_angle_alpha                        90
_cell_angle_beta                         90
_cell_angle_gamma                        90
_cell_volume                             221.8
_cell_formula_units_Z                    4
_space_group_IT_number                   62
_space_group_name_H-M_alt                'P n m a'
loop_
 _space_group_symop_id
 _space_group_symop_operation_xyz
 1 'x, y, z'
 2 '1/2-x, -y, 1/2+z'
 3 '1/2-x, 1/2+y, 1/2+z'
 4 '-x, -y, -z'
 5 '-x, 1/2+y, -z'
 6 '1/2+x, 1/2-y, 1/2-z'
 7 '1/2+x, y, 1/2-z'
 8 'x, 1/2-y, z'
loop_
 _atom_type_symbol
 Yb
 Ga
 Pt
loop_
 _atom_site_label
 _atom_site_type_symbol
 _atom_site_symmetry_multiplicity
 _atom_site_Wyckoff_symbol
 _atom_site_fract_x
 _atom_site_fract_y
 _atom_site_fract_z
 _atom_site_occupancy
 Yb Yb 4 c 0.0127 0.25 0.6977 1
 Ga Ga 4 c 0.172 0.25 0.0743 1
 Pt Pt 4 c 0.2746 0.25 0.3997 1


_exptl_crystal_colour                    ?
_exptl_crystal_density_meas              ?
_exptl_crystal_density_diffrn            13.11
_cell_measurement_temperature            ?
_cell_measurement_radiation              X-rays
_cell_measurement_reflns_used            ?
_diffrn_ambient_temperature              ?
_diffrn_measurement_device               'automatic diffractometer'
_diffrn_measurement_device_type
'United Kingdom, Chilton-Didcot, Rutherford Appleton Laboratory, ISIS Facility'
_diffrn_radiation_type                   'neutrons, time-of-flight'
_diffrn_reflns_number                    ?
_exptl_absorpt_coefficient_mu            ?
_exptl_absorpt_correction_type           ?
_computing_structure_solution            'starting values from the literature'
_refine_ls_number_parameters             ?
_refine_ls_number_reflns                 ?
_refine_ls_R_factor_gt                   ?
_refine_ls_wR_factor_gt                  ?
_pd_proc_ls_proof_R_factor               ?
_pd_proc_ls_proof_wR_factor              0.0379
_refine_ls_R_I_factor                    ?

# End of data set 560432

