##############################################################################
#                                                                            #
# Co-Ga-Y          # YCo4Ga                                        #  560710 #
#                                                                            #
##############################################################################
#                                                                            #
#                           Pearson's Crystal Data                           #
#      Crystal Structure Database for Inorganic Compounds (on DVD)           #
#                              Release 2023/24                               #
#                  Editors: Pierre Villars and Karin Cenzual                 #
#                                                                            #
#   Copyright (c) ASM International & Material Phases Data System (MPDS),    #
# Switzerland & National Institute for Materials Science (NIMS), Japan, 2023 #
#                   All rights reserved. Version 2023.07                     #
#                                                                            #
#   This copy of Pearson's Crystal Data is licensed to:                      #
#   Hunter College - City University of New York                             #
#                                                                            #
##############################################################################

data_560710
_audit_creation_date                     2024-02-24
_audit_creation_method
;
Pearson's Crystal Data browser
;
#_database_code_PCD                      560710
_database_code_PDF                       04-006-7871

# Entry summary

_chemical_formula_structural             'Y Co~4~ Ga'
_chemical_formula_sum                    'Co4 Ga Y'
_chemical_name_mineral                   ?
_chemical_compound_source                ?
_chemical_name_structure_type            CaCu~5~,hP6,191
_chemical_formula_weight                 394.4

# Bibliographic data

_publ_section_title
;
Magnetic structure and anisotropy of Ga- and Al-substituted LaCo~5~ and YCo~5~ intermetallics
;
_journal_coden_ASTM                      PRBMDO
_journal_name_full
'Phys. Rev. B: Condens. Matter Mater. Phys.'                                  
_journal_year                            1996
_journal_volume                          53
_journal_page_first                      11550
_journal_page_last                       11556
_journal_language                        English
loop_
 _publ_author_name
 _publ_author_address
'Moze O.'
;
Parma University (UNIPR)
Istituto Nazionale per la Fisica della Materia (INFM)
Parma
Italy
;
'Pareti L.'
;
National Research Council (CNR)
Istituto dei Materiali per l'Elettronica ed il Magnetismo (IMEM)
Parma
Italy
;
'Paoluzi A.'
;
National Research Council (CNR)
Istituto dei Materiali per l'Elettronica ed il Magnetismo (IMEM)
Parma
Italy
;
'Buschow K.H.J.'
;
Amsterdam University
Van der Waals-Zeeman Laboratorium
Amsterdam
Netherlands
;

# Standardized crystallographic data

_cell_length_a                           5.0016
_cell_length_b                           5.0016
_cell_length_c                           4.0086
_cell_angle_alpha                        90
_cell_angle_beta                         90
_cell_angle_gamma                        120
_cell_volume                             86.8
_cell_formula_units_Z                    1
_space_group_IT_number                   191
_space_group_name_H-M_alt                'P 6/m m m'
loop_
 _space_group_symop_id
 _space_group_symop_operation_xyz
 1 'x, y, z'
 2 '-x+y, -x, -z'
 3 '-x+y, -x, z'
 4 '-x+y, y, -z'
 5 '-x+y, y, z'
 6 '-x, -x+y, -z'
 7 '-x, -x+y, z'
 8 '-x, -y, -z'
 9 '-x, -y, z'
 10 '-y, -x, -z'
 11 '-y, -x, z'
 12 '-y, x-y, -z'
 13 '-y, x-y, z'
 14 'x, x-y, -z'
 15 'x, x-y, z'
 16 'x, y, -z'
 17 'x-y, -y, -z'
 18 'x-y, -y, z'
 19 'x-y, x, -z'
 20 'x-y, x, z'
 21 'y, -x+y, -z'
 22 'y, -x+y, z'
 23 'y, x, -z'
 24 'y, x, z'
loop_
 _atom_type_symbol
 Co
 Ga
 Y
loop_
 _atom_site_label
 _atom_site_type_symbol
 _atom_site_symmetry_multiplicity
 _atom_site_Wyckoff_symbol
 _atom_site_fract_x
 _atom_site_fract_y
 _atom_site_fract_z
 _atom_site_occupancy
 Co2A Co 3 g 0.5 0 0.5 0.8
 Ga2B Ga 3 g 0.5 0 0.5 0.2
 Co1A Co 2 c 0.333333 0.666667 0 0.8
 Ga1B Ga 2 c 0.333333 0.666667 0 0.2
 Y Y 1 a 0 0 0 1


_exptl_crystal_colour                    ?
_exptl_crystal_density_meas              ?
_exptl_crystal_density_diffrn            7.54
_cell_measurement_temperature            293
_cell_measurement_radiation              'neutrons, time-of-flight'
_cell_measurement_reflns_used            ?
_diffrn_ambient_temperature              ?
_diffrn_measurement_device               diffractometer
_diffrn_measurement_device_type
;
United Kingdom, Chilton-Didcot, Rutherford Appleton Laboratory, ISIS Facility, POLARIS
;
_diffrn_radiation_type                   'neutrons, time-of-flight'
_diffrn_reflns_number                    ?
_exptl_absorpt_coefficient_mu            ?
_exptl_absorpt_correction_type           ?
_computing_structure_solution            'starting values from the literature'
_refine_ls_number_parameters             ?
_refine_ls_number_reflns                 ?
_refine_ls_R_factor_gt                   ?
_refine_ls_wR_factor_gt                  ?
_pd_proc_ls_proof_R_factor               ?
_pd_proc_ls_proof_wR_factor              ?
_refine_ls_R_I_factor                    ?

# End of data set 560710

