##############################################################################
#                                                                            #
# Ge-Ni-U          # UNiGe                                         #  560792 #
#                                                                            #
##############################################################################
#                                                                            #
#                           Pearson's Crystal Data                           #
#      Crystal Structure Database for Inorganic Compounds (on DVD)           #
#                              Release 2023/24                               #
#                  Editors: Pierre Villars and Karin Cenzual                 #
#                                                                            #
#   Copyright (c) ASM International & Material Phases Data System (MPDS),    #
# Switzerland & National Institute for Materials Science (NIMS), Japan, 2023 #
#                   All rights reserved. Version 2023.07                     #
#                                                                            #
#   This copy of Pearson's Crystal Data is licensed to:                      #
#   Hunter College - City University of New York                             #
#                                                                            #
##############################################################################

data_560792
_audit_creation_date                     2024-02-25
_audit_creation_method
;
Pearson's Crystal Data browser
;
#_database_code_PCD                      560792
_database_code_PDF                       04-006-7937

# Entry summary

_chemical_formula_structural             'U Ni Ge'
_chemical_formula_sum                    'Ge Ni U'
_chemical_name_mineral                   ?
_chemical_compound_source                ?
_chemical_name_structure_type            TiNiSi,oP12,62
_chemical_formula_weight                 369.3

# Bibliographic data

_publ_section_title
'Low-temperature magnetic structure of UNiGe'                                 
_journal_coden_ASTM                      PRBMDO
_journal_name_full
'Phys. Rev. B: Condens. Matter Mater. Phys.'                                  
_journal_year                            1996
_journal_volume                          53
_journal_page_first                      758
_journal_page_last                       765
_journal_language                        English
loop_
 _publ_author_name
 _publ_author_address
'Purwanto A.'
;
Los Alamos National Laboratory (LANL)
Los Alamos National Laboratory (LANL)
Los Alamos
U.S.A. New Mexico
;
'Sechovsky V.'
;
Charles University
Department of Metal Physics
Prague
Czech Republic
;
'Havela L.'
;
Charles University
Department of Metal Physics
Prague
Czech Republic
;
'Robinson R.A.'
;
Los Alamos National Laboratory (LANL)
Los Alamos National Laboratory (LANL)
Los Alamos
U.S.A. New Mexico
;
'Nakotte H.'
;
Los Alamos National Laboratory (LANL)
Los Alamos National Laboratory (LANL)
Los Alamos
U.S.A. New Mexico
;
'Larson A.C.'
;
Los Alamos National Laboratory (LANL)
Los Alamos National Laboratory (LANL)
Los Alamos
U.S.A. New Mexico
;
'Prokes K.'
;
Amsterdam University
Van der Waals-Zeeman Laboratorium
Amsterdam
Netherlands
;
'Bruck E.'
;
Amsterdam University
Van der Waals-Zeeman Laboratorium
Amsterdam
Netherlands
;
'De Boer F.R.'
;
Amsterdam University
Van der Waals-Zeeman Laboratorium
Amsterdam
Netherlands
;

# Standardized crystallographic data

_cell_length_a                           6.9649
_cell_length_b                           4.2452
_cell_length_c                           7.1923
_cell_angle_alpha                        90
_cell_angle_beta                         90
_cell_angle_gamma                        90
_cell_volume                             212.66
_cell_formula_units_Z                    4
_space_group_IT_number                   62
_space_group_name_H-M_alt                'P n m a'
loop_
 _space_group_symop_id
 _space_group_symop_operation_xyz
 1 'x, y, z'
 2 '1/2-x, -y, 1/2+z'
 3 '1/2-x, 1/2+y, 1/2+z'
 4 '-x, -y, -z'
 5 '-x, 1/2+y, -z'
 6 '1/2+x, 1/2-y, 1/2-z'
 7 '1/2+x, y, 1/2-z'
 8 'x, 1/2-y, z'
loop_
 _atom_type_symbol
 U
 Ni
 Ge
loop_
 _atom_site_label
 _atom_site_type_symbol
 _atom_site_symmetry_multiplicity
 _atom_site_Wyckoff_symbol
 _atom_site_fract_x
 _atom_site_fract_y
 _atom_site_fract_z
 _atom_site_occupancy
 U U 4 c -0.0111 0.25 0.7054 1
 Ni Ni 4 c 0.193 0.25 0.0807 1
 Ge Ge 4 c 0.2995 0.25 0.4088 1


_exptl_crystal_colour                    ?
_exptl_crystal_density_meas              ?
_exptl_crystal_density_diffrn            11.54
_cell_measurement_temperature            60
_cell_measurement_radiation              neutrons
_cell_measurement_reflns_used            ?
_diffrn_ambient_temperature              60
_diffrn_measurement_device               'automatic diffractometer'
_diffrn_measurement_device_type
;
U.S.A. New Mexico, Los Alamos Neutron Science Center LANSCE, Manuel Lujan Neutron Scattering Facility
;
_diffrn_radiation_type                   neutrons
_diffrn_reflns_number                    ?
_exptl_absorpt_coefficient_mu            ?
_exptl_absorpt_correction_type           ?
_computing_structure_solution            'starting values from the literature'
_refine_ls_number_parameters             ?
_refine_ls_number_reflns                 ?
_refine_ls_R_factor_gt                   ?
_refine_ls_wR_factor_gt                  ?

# End of data set 560792

