##############################################################################
#                                                                            #
# Ga-Pd-U          # UPd2Ga3                                       #  560880 #
#                                                                            #
##############################################################################
#                                                                            #
#                           Pearson's Crystal Data                           #
#      Crystal Structure Database for Inorganic Compounds (on DVD)           #
#                              Release 2023/24                               #
#                  Editors: Pierre Villars and Karin Cenzual                 #
#                                                                            #
#   Copyright (c) ASM International & Material Phases Data System (MPDS),    #
# Switzerland & National Institute for Materials Science (NIMS), Japan, 2023 #
#                   All rights reserved. Version 2023.07                     #
#                                                                            #
#   This copy of Pearson's Crystal Data is licensed to:                      #
#   Hunter College - City University of New York                             #
#                                                                            #
##############################################################################

data_560880
_audit_creation_date                     2024-02-24
_audit_creation_method
;
Pearson's Crystal Data browser
;
#_database_code_PCD                      560880
_database_code_PDF                       04-009-1298

# Entry summary

_chemical_formula_structural             'U Pd~2~ Ga~3~'
_chemical_formula_sum                    'Ga3 Pd2 U'
_chemical_name_mineral                   ?
_chemical_compound_source                ?
_chemical_name_structure_type            UPd~2~Ga~3~,hP12,194
_chemical_formula_weight                 660.0

# Bibliographic data

_publ_section_title
'Magnetic behavior of the heavy-fermion system UPd~2~Ga~3~'                   
_journal_coden_ASTM                      PRBMDO
_journal_name_full
'Phys. Rev. B: Condens. Matter Mater. Phys.'                                  
_journal_year                            1995
_journal_volume                          52
_journal_page_first                      12784
_journal_page_last                       12789
_journal_language                        English
loop_
 _publ_author_name
 _publ_author_address
'Sullow S.'
;
Leiden University
Kamerlingh Onnes Laboratory
Leiden
Netherlands
;
'Ludoph B.'
;
Leiden University
Kamerlingh Onnes Laboratory
Leiden
Netherlands
;
'Becker B.'
;
Leiden University
Kamerlingh Onnes Laboratory
Leiden
Netherlands
;
'Nieuwenhuys G.J.'
;
Leiden University
Kamerlingh Onnes Laboratory
Leiden
Netherlands
;
'Menovsky A.A.'
;
Leiden University
Kamerlingh Onnes Laboratory
Leiden
Netherlands
;
'Mydosh J.A.'
;
Leiden University
Kamerlingh Onnes Laboratory
Leiden
Netherlands
;
'Mentink S.A.M.'
;
Toronto University (U of T)
Department of Physics
Toronto
Canada
;
'Mason T.E.'
;
Toronto University (U of T)
Department of Physics
Toronto
Canada
;

# Standardized crystallographic data

_cell_length_a                           5.284
_cell_length_b                           5.284
_cell_length_c                           8.4774
_cell_angle_alpha                        90
_cell_angle_beta                         90
_cell_angle_gamma                        120
_cell_volume                             205
_cell_formula_units_Z                    2
_space_group_IT_number                   194
_space_group_name_H-M_alt                'P 63/m m c'
loop_
 _space_group_symop_id
 _space_group_symop_operation_xyz
 1 'x, y, z'
 2 '-x+y, -x, 1/2-z'
 3 '-x+y, -x, z'
 4 '-x+y, y, 1/2-z'
 5 '-x+y, y, z'
 6 '-x, -x+y, -z'
 7 '-x, -x+y, 1/2+z'
 8 '-x, -y, -z'
 9 '-x, -y, 1/2+z'
 10 '-y, -x, 1/2-z'
 11 '-y, -x, z'
 12 '-y, x-y, 1/2-z'
 13 '-y, x-y, z'
 14 'x, x-y, 1/2-z'
 15 'x, x-y, z'
 16 'x, y, 1/2-z'
 17 'x-y, -y, -z'
 18 'x-y, -y, 1/2+z'
 19 'x-y, x, -z'
 20 'x-y, x, 1/2+z'
 21 'y, -x+y, -z'
 22 'y, -x+y, 1/2+z'
 23 'y, x, -z'
 24 'y, x, 1/2+z'
loop_
 _atom_type_symbol
 Ga
 Pd
 U
loop_
 _atom_site_label
 _atom_site_type_symbol
 _atom_site_symmetry_multiplicity
 _atom_site_Wyckoff_symbol
 _atom_site_fract_x
 _atom_site_fract_y
 _atom_site_fract_z
 _atom_site_occupancy
 Ga Ga 6 h 0.5106 0.0212 0.25 1
 Pd Pd 4 f 0.333333 0.666667 0.0197 1
 U U 2 a 0 0 0 1


_exptl_crystal_colour                    ?
_exptl_crystal_density_meas              ?
_exptl_crystal_density_diffrn            10.69
_cell_measurement_temperature            20
_cell_measurement_radiation              X-rays
_cell_measurement_reflns_used            ?
_diffrn_ambient_temperature              20
_diffrn_measurement_device               'automatic diffractometer'
_diffrn_measurement_device_type          ?
_diffrn_radiation_type                   neutrons
_diffrn_reflns_number                    ?
_exptl_absorpt_coefficient_mu            ?
_exptl_absorpt_correction_type           ?
_computing_structure_solution            'starting values from the literature'
_refine_ls_number_parameters             ?
_refine_ls_number_reflns                 ?
_refine_ls_R_factor_gt                   ?
_refine_ls_wR_factor_gt                  ?
_pd_proc_ls_proof_R_factor               0.186
_pd_proc_ls_proof_wR_factor              ?
_refine_ls_R_I_factor                    ?

# End of data set 560880

