##############################################################################
#                                                                            #
# Eu-Ni-Si         # Eu2Ni8Si3                                     # 1000505 #
#                                                                            #
##############################################################################
#                                                                            #
#                           Pearson's Crystal Data                           #
#      Crystal Structure Database for Inorganic Compounds (on DVD)           #
#                              Release 2023/24                               #
#                  Editors: Pierre Villars and Karin Cenzual                 #
#                                                                            #
#   Copyright (c) ASM International & Material Phases Data System (MPDS),    #
# Switzerland & National Institute for Materials Science (NIMS), Japan, 2023 #
#                   All rights reserved. Version 2023.07                     #
#                                                                            #
#   This copy of Pearson's Crystal Data is licensed to:                      #
#   Hunter College - City University of New York                             #
#                                                                            #
##############################################################################

data_1000505
_audit_creation_date                     2024-02-24
_audit_creation_method
;
Pearson's Crystal Data browser
;
#_database_code_PCD                      1000505
_database_code_PDF                       04-009-1482

# Entry summary

_chemical_formula_structural             'Eu~2~ Ni~8~ Si~3~'
_chemical_formula_sum                    'Eu2 Ni8 Si3'
_chemical_name_mineral                   ?
_chemical_compound_source                ?
_chemical_name_structure_type            Eu~2~Ni~8~Si~3~,tP52,137
_chemical_formula_weight                 857.8

# Bibliographic data

_publ_section_title
'Crystal structure of the Eu~2~Ni~8~Si~3~ compound'                           
_journal_coden_ASTM                      DNUNDU
_journal_name_full                       'Dopov. Akad. Nauk Ukr. RSR, Ser. A'
_journal_year                            1986
_journal_volume                          ?
_journal_issue                           12
_journal_page_first                      63
_journal_page_last                       65
_journal_language                        Ukrainian
loop_
 _publ_author_name
 _publ_author_address
'Belan B.D.'
;
Lviv Ivan Franko State University
Department of Inorganic Chemistry
Lviv
Ukraine
;
'Belskii V.K.'
;
Lviv Ivan Franko State University
Lviv
Ukraine
;
'Pecharskii V.K.'
;
Lviv Ivan Franko State University
Department of Inorganic Chemistry
Lviv
Ukraine
;
'Bodak O.I.'
;
Lviv Ivan Franko State University
Department of Inorganic Chemistry
Lviv
Ukraine
;
'Zukh T.V.'
;
Lviv Ivan Franko State University
Lviv
Ukraine
;

# Standardized crystallographic data

_cell_length_a                           9.98
_cell_length_b                           9.98
_cell_length_c                           7.485
_cell_angle_alpha                        90
_cell_angle_beta                         90
_cell_angle_gamma                        90
_cell_volume                             745.5
_cell_formula_units_Z                    4
_space_group_IT_number                   137
_space_group_name_H-M_alt                'P 42/n m c (origin choice 2)'
loop_
 _space_group_symop_id
 _space_group_symop_operation_xyz
 1 'x, y, z'
 2 '1/2-x, 1/2-y, z'
 3 '1/2-x, y, z'
 4 '-x, -y, -z'
 5 '-x, 1/2+y, -z'
 6 '1/2-y, 1/2-x, 1/2+z'
 7 '1/2-y, x, 1/2+z'
 8 '-y, -x, 1/2-z'
 9 '-y, 1/2+x, 1/2-z'
 10 '1/2+x, -y, -z'
 11 '1/2+x, 1/2+y, -z'
 12 'x, 1/2-y, z'
 13 '1/2+y, -x, 1/2-z'
 14 '1/2+y, 1/2+x, 1/2-z'
 15 'y, 1/2-x, 1/2+z'
 16 'y, x, 1/2+z'
loop_
 _atom_type_symbol
 Ni
 Eu
 Si
loop_
 _atom_site_label
 _atom_site_type_symbol
 _atom_site_symmetry_multiplicity
 _atom_site_Wyckoff_symbol
 _atom_site_fract_x
 _atom_site_fract_y
 _atom_site_fract_z
 _atom_site_occupancy
 Ni2 Ni 16 h 0.0423 0.1234 0.0321 1
 Ni1 Ni 8 g 0.25 0.1121 0.2568 1
 Eu Eu 8 g 0.25 0.5443 0.8901 1
 Ni3 Ni 8 g 0.25 0.6234 0.3531 1
 Si2 Si 8 f 0.4585 0.5415 0.25 1
 Si1 Si 4 d 0.25 0.25 0.0148 1


_exptl_crystal_colour                    ?
_exptl_crystal_density_meas              ?
_exptl_crystal_density_diffrn            7.64
_cell_measurement_temperature            ?
_cell_measurement_radiation              'X-rays, Mo Ka'
_cell_measurement_reflns_used            ?
_diffrn_ambient_temperature              ?
_diffrn_measurement_device               'automatic diffractometer'
_diffrn_measurement_device_type          'Syntex P1'
_diffrn_radiation_type                   'X-rays, Mo Ka'
_diffrn_reflns_number                    ?
_exptl_absorpt_coefficient_mu            ?
_exptl_absorpt_correction_type           empirical
_computing_structure_solution            'direct methods, Fourier synthesis'
_refine_ls_number_parameters             ?
_refine_ls_number_reflns                 677
_refine_ls_R_factor_gt                   0.034
_refine_ls_wR_factor_gt                  ?

# End of data set 1000505

