##############################################################################
#                                                                            #
# Ni-Si-U          # U2Ni2Si7                                      # 1000446 #
#                                                                            #
##############################################################################
#                                                                            #
#                           Pearson's Crystal Data                           #
#      Crystal Structure Database for Inorganic Compounds (on DVD)           #
#                              Release 2023/24                               #
#                  Editors: Pierre Villars and Karin Cenzual                 #
#                                                                            #
#   Copyright (c) ASM International & Material Phases Data System (MPDS),    #
# Switzerland & National Institute for Materials Science (NIMS), Japan, 2023 #
#                   All rights reserved. Version 2023.07                     #
#                                                                            #
#   This copy of Pearson's Crystal Data is licensed to:                      #
#   Hunter College - City University of New York                             #
#                                                                            #
##############################################################################

data_1000446
_audit_creation_date                     2024-02-25
_audit_creation_method
;
Pearson's Crystal Data browser
;
#_database_code_PCD                      1000446
_database_code_PDF                       04-009-1476

# Entry summary

_chemical_formula_structural             'U~2~ Ni~2~ Si~7~'
_chemical_formula_sum                    'Ni2 Si7 U2'
_chemical_name_mineral                   ?
_chemical_compound_source                ?
_chemical_name_structure_type
U~2~Ni(Ni~0.5~Si~0.5~)~2~Si~6~,oS22,65                                        
_chemical_formula_weight                 790.1

# Bibliographic data

_publ_section_title
'The crystal structure of U~2~Ni~2~Si~7~ compound'                            
_journal_coden_ASTM                      DNUNDU
_journal_name_full                       'Dopov. Akad. Nauk Ukr. RSR, Ser. A'
_journal_year                            1975
_journal_volume                          ?
_journal_page_first                      643
_journal_page_last                       645
_journal_language                        Ukrainian
loop_
 _publ_author_name
 _publ_author_address
'Akselrud L.G.'
;
Lviv Ivan Franko State University
Department of Inorganic Chemistry
Lviv
Ukraine
;
'Yarmolyuk Y.P.'
;
Lviv Ivan Franko State University
Department of Inorganic Chemistry
Lviv
Ukraine
;
'Gladyshevskii E.I.'
;
Lviv Ivan Franko State University
Lviv
Ukraine
;

# Standardized crystallographic data

_cell_length_a                           3.964
_cell_length_b                           20.85
_cell_length_c                           3.964
_cell_angle_alpha                        90
_cell_angle_beta                         90
_cell_angle_gamma                        90
_cell_volume                             327.6
_cell_formula_units_Z                    2
_space_group_IT_number                   65
_space_group_name_H-M_alt                'C m m m'
loop_
 _space_group_symop_id
 _space_group_symop_operation_xyz
 1 'x, y, z'
 2 '-x, -y, -z'
 3 '-x, -y, z'
 4 '-x, y, -z'
 5 '-x, y, z'
 6 'x, -y, -z'
 7 'x, -y, z'
 8 'x, y, -z'
 9 '1/2+x, 1/2+y, z'
 10 '1/2-x, 1/2-y, -z'
 11 '1/2-x, 1/2-y, z'
 12 '1/2-x, 1/2+y, -z'
 13 '1/2-x, 1/2+y, z'
 14 '1/2+x, 1/2-y, -z'
 15 '1/2+x, 1/2-y, z'
 16 '1/2+x, 1/2+y, -z'
loop_
 _atom_type_symbol
 Si
 Ni
 U
loop_
 _atom_site_label
 _atom_site_type_symbol
 _atom_site_symmetry_multiplicity
 _atom_site_Wyckoff_symbol
 _atom_site_fract_x
 _atom_site_fract_y
 _atom_site_fract_z
 _atom_site_occupancy
 Si2 Si 4 j 0 0.063 0.5 1
 Si3 Si 4 j 0 0.278 0.5 1
 Ni,Si1 Ni 4 j 0 0.386 0.5 0.5
 Ni,Si2 Si 4 j 0 0.386 0.5 0.5
 U U 4 i 0 0.17 0 1
 Si1 Si 4 i 0 0.437 0 1
 Ni Ni 2 a 0 0 0 1


_exptl_crystal_colour                    ?
_exptl_crystal_density_meas              7.92
_exptl_crystal_density_diffrn            8.01
_cell_measurement_temperature            ?
_cell_measurement_radiation              'X-rays, Cr K'
_cell_measurement_reflns_used            ?
_diffrn_ambient_temperature              ?
_diffrn_measurement_device               film
_diffrn_measurement_device_type          DRON-1.5
_diffrn_radiation_type                   'X-rays, Cu K'
_diffrn_reflns_number                    ?
_exptl_absorpt_coefficient_mu            ?
_exptl_absorpt_correction_type           ?
_computing_structure_solution            'crystal chemical considerations'
_refine_ls_number_parameters             ?
_refine_ls_number_reflns                 35
_refine_ls_R_factor_gt                   0.159
_refine_ls_wR_factor_gt                  ?
_pd_proc_ls_proof_R_factor               ?
_pd_proc_ls_proof_wR_factor              ?
_refine_ls_R_I_factor                    ?

# End of data set 1000446

