##############################################################################
#                                                                            #
# Ge-Ni-Sc         # Sc6Ni18Ge11                                   # 1000146 #
#                                                                            #
##############################################################################
#                                                                            #
#                           Pearson's Crystal Data                           #
#      Crystal Structure Database for Inorganic Compounds (on DVD)           #
#                              Release 2023/24                               #
#                  Editors: Pierre Villars and Karin Cenzual                 #
#                                                                            #
#   Copyright (c) ASM International & Material Phases Data System (MPDS),    #
# Switzerland & National Institute for Materials Science (NIMS), Japan, 2023 #
#                   All rights reserved. Version 2023.07                     #
#                                                                            #
#   This copy of Pearson's Crystal Data is licensed to:                      #
#   Hunter College - City University of New York                             #
#                                                                            #
##############################################################################

data_1000146
_audit_creation_date                     2024-02-25
_audit_creation_method
;
Pearson's Crystal Data browser
;
#_database_code_PCD                      1000146
_database_code_PDF                       04-009-1345

# Entry summary

_chemical_formula_structural             'Sc~6~ Ni~18~ Ge~11~'
_chemical_formula_sum                    'Ge11 Ni18 Sc6'
_chemical_name_mineral                   ?
_chemical_compound_source                ?
_chemical_name_structure_type            Sc~6~Ni~18~Si~11~,oI140,71
_chemical_formula_weight                 2124.8

# Bibliographic data

_publ_section_title
'Crystal structure of the germanide Sc~6~Ni~18~Ge~11~'                        
_journal_coden_ASTM                      SPHCA6
_journal_name_full                       'Sov. Phys. Crystallogr.'
_journal_year                            1987
_journal_volume                          32
_journal_page_first                      598
_journal_page_last                       599
_journal_language                        English
loop_
 _publ_author_name
 _publ_author_address
'Andrasyak R.I.'
;
Lviv Ivan Franko State University
Lviv
Ukraine
;
'Kotur B.Y.'
;
Lviv Ivan Franko State University
Department of Inorganic Chemistry
Lviv
Ukraine
;

# Standardized crystallographic data

_cell_length_a                           8.191
_cell_length_b                           12.461
_cell_length_c                           18.322
_cell_angle_alpha                        90
_cell_angle_beta                         90
_cell_angle_gamma                        90
_cell_volume                             1870.1
_cell_formula_units_Z                    4
_space_group_IT_number                   71
_space_group_name_H-M_alt                'I m m m'
loop_
 _space_group_symop_id
 _space_group_symop_operation_xyz
 1 'x, y, z'
 2 '-x, -y, -z'
 3 '-x, -y, z'
 4 '-x, y, -z'
 5 '-x, y, z'
 6 'x, -y, -z'
 7 'x, -y, z'
 8 'x, y, -z'
 9 '1/2+x, 1/2+y, 1/2+z'
 10 '1/2-x, 1/2-y, 1/2-z'
 11 '1/2-x, 1/2-y, 1/2+z'
 12 '1/2-x, 1/2+y, 1/2-z'
 13 '1/2-x, 1/2+y, 1/2+z'
 14 '1/2+x, 1/2-y, 1/2-z'
 15 '1/2+x, 1/2-y, 1/2+z'
 16 '1/2+x, 1/2+y, 1/2-z'
loop_
 _atom_type_symbol
 Ni
 Ge
 Sc
loop_
 _atom_site_label
 _atom_site_type_symbol
 _atom_site_symmetry_multiplicity
 _atom_site_Wyckoff_symbol
 _atom_site_fract_x
 _atom_site_fract_y
 _atom_site_fract_z
 _atom_site_occupancy
 Ni7 Ni 16 o 0.1664 0.1529 0.28228 1
 Ni8 Ni 16 o 0.2169 0.3501 0.08601 1
 Ge7 Ge 16 o 0.2353 0.16866 0.15669 1
 Sc3 Sc 8 n 0.2964 0.1828 0 1
 Ni4 Ni 8 m 0.2325 0 0.0763 1
 Ge5 Ge 8 m 0.319 0 0.33157 1
 Ni3 Ni 8 m 0.3372 0 0.2084 1
 Ni6 Ni 8 l 0 0.1674 0.077 1
 Ge6 Ge 8 l 0 0.2136 0.38543 1
 Sc4 Sc 8 l 0 0.318 0.2196 1
 Ni5 Ni 8 l 0 0.4012 0.3861 1
 Ni2 Ni 4 j 0.5 0 0.4321 1
 Sc2 Sc 4 i 0 0 0.1921 1
 Sc1 Sc 4 i 0 0 0.372 1
 Ni1 Ni 4 h 0 0.1202 0.5 1
 Ge4 Ge 4 g 0 0.3228 0 1
 Ge3 Ge 4 f 0.271 0.5 0 1
 Ge1 Ge 2 b 0 0.5 0.5 1
 Ge2 Ge 2 a 0 0 0 1


_exptl_crystal_colour                    ?
_exptl_crystal_density_meas              ?
_exptl_crystal_density_diffrn            7.55
_cell_measurement_temperature            ?
_cell_measurement_radiation              'X-rays, Mo Ka'
_cell_measurement_reflns_used            12
_diffrn_ambient_temperature              ?
_diffrn_measurement_device               'automatic diffractometer'
_diffrn_measurement_device_type          'Syntex P1'
_diffrn_radiation_type                   'X-rays, Mo Ka'
_diffrn_reflns_number                    ?
_exptl_absorpt_coefficient_mu            38.14
_exptl_absorpt_correction_type           ?
_computing_structure_solution            'starting values from the literature'
_refine_ls_number_parameters             ?
_refine_ls_number_reflns                 948
_refine_ls_R_factor_gt                   0.0345
_refine_ls_wR_factor_gt                  0.0310

# End of data set 1000146

