##############################################################################
#                                                                            #
# Ge-Ir-Lu         # Lu3Ir2Ge3                                     # 1004134 #
#                                                                            #
##############################################################################
#                                                                            #
#                           Pearson's Crystal Data                           #
#      Crystal Structure Database for Inorganic Compounds (on DVD)           #
#                              Release 2023/24                               #
#                  Editors: Pierre Villars and Karin Cenzual                 #
#                                                                            #
#   Copyright (c) ASM International & Material Phases Data System (MPDS),    #
# Switzerland & National Institute for Materials Science (NIMS), Japan, 2023 #
#                   All rights reserved. Version 2023.07                     #
#                                                                            #
#   This copy of Pearson's Crystal Data is licensed to:                      #
#   Hunter College - City University of New York                             #
#                                                                            #
##############################################################################

data_1004134
_audit_creation_date                     2024-02-25
_audit_creation_method
;
Pearson's Crystal Data browser
;
#_database_code_PCD                      1004134
_database_code_PDF                       04-011-0985

# Entry summary

_chemical_formula_structural             'Lu~3~ Ir~2~ Ge~3~'
_chemical_formula_sum                    'Ge3 Ir2 Lu3'
_chemical_name_mineral                   ?
_chemical_compound_source                ?
_chemical_name_structure_type            Hf~3~Ni~2~Si~3~,oS32,63
_chemical_formula_weight                 1127.1

# Bibliographic data

_publ_section_title
;
Three-dimensional iridium-germanium polyanions in the structures of Yb~2~IrGe~2~, LuIrGe, and Lu~3~Ir~2~Ge~3~
;
_journal_coden_ASTM                      SSSCFJ
_journal_name_full                       'Solid State Sci.'
_journal_year                            2003
_journal_volume                          5
_journal_page_first                      487
_journal_page_last                       493
_journal_language                        English
loop_
 _publ_author_name
 _publ_author_address
'Rodewald U.C.'
;
Munster University (WWU)
Institut fur Anorganische und Analytische Chemie
Munster
Germany
;
'Pottgen R.'
;
Munster University (WWU)
Institut fur Anorganische und Analytische Chemie
Munster
Germany
;

# Standardized crystallographic data

_cell_length_a                           4.265
_cell_length_b                           10.191
_cell_length_c                           13.989
_cell_angle_alpha                        90
_cell_angle_beta                         90
_cell_angle_gamma                        90
_cell_volume                             608
_cell_formula_units_Z                    4
_space_group_IT_number                   63
_space_group_name_H-M_alt                'C m c m'
loop_
 _space_group_symop_id
 _space_group_symop_operation_xyz
 1 'x, y, z'
 2 '-x, -y, -z'
 3 '-x, -y, 1/2+z'
 4 '-x, y, 1/2-z'
 5 '-x, y, z'
 6 'x, -y, -z'
 7 'x, -y, 1/2+z'
 8 'x, y, 1/2-z'
 9 '1/2+x, 1/2+y, z'
 10 '1/2-x, 1/2-y, -z'
 11 '1/2-x, 1/2-y, 1/2+z'
 12 '1/2-x, 1/2+y, 1/2-z'
 13 '1/2-x, 1/2+y, z'
 14 '1/2+x, 1/2-y, -z'
 15 '1/2+x, 1/2-y, 1/2+z'
 16 '1/2+x, 1/2+y, 1/2-z'
loop_
 _atom_type_symbol
 Lu
 Ir
 Ge
loop_
 _atom_site_label
 _atom_site_type_symbol
 _atom_site_symmetry_multiplicity
 _atom_site_Wyckoff_symbol
 _atom_site_fract_x
 _atom_site_fract_y
 _atom_site_fract_z
 _atom_site_occupancy
 Lu2 Lu 8 f 0 0.08485 0.11054 1
 Ir Ir 8 f 0 0.20089 0.602 1
 Ge2 Ge 8 f 0 0.378 0.0353 1
 Lu1 Lu 4 c 0 0.3587 0.25 1
 Ge1 Ge 4 c 0 0.652 0.25 1


_exptl_crystal_colour                    ?
_exptl_crystal_density_meas              ?
_exptl_crystal_density_diffrn            12.31
_cell_measurement_temperature            ?
_cell_measurement_radiation              'X-rays, Cu Ka1'
_cell_measurement_reflns_used            ?
_diffrn_ambient_temperature              ?
_diffrn_measurement_device               'automatic diffractometer'
_diffrn_measurement_device_type          'Enraf-Nonius CAD4'
_diffrn_radiation_type                   'X-rays, Mo Ka'
_diffrn_reflns_number                    1931
_diffrn_reflns_theta_min                 2
_diffrn_reflns_theta_max                 30
_exptl_absorpt_coefficient_mu            106.3
_exptl_absorpt_correction_type           empirical
_computing_structure_solution            'direct methods, Fourier synthesis'
_refine_ls_number_parameters             28
_refine_ls_number_reflns                 386
_refine_ls_R_factor_gt                   0.0312
_refine_ls_wR_factor_gt                  0.0672

# End of data set 1004134

