##############################################################################
#                                                                            #
# Dy-Ga-Ni         # Dy3Ni6Ga2                                     # 1007208 #
#                                                                            #
##############################################################################
#                                                                            #
#                           Pearson's Crystal Data                           #
#      Crystal Structure Database for Inorganic Compounds (on DVD)           #
#                              Release 2023/24                               #
#                  Editors: Pierre Villars and Karin Cenzual                 #
#                                                                            #
#   Copyright (c) ASM International & Material Phases Data System (MPDS),    #
# Switzerland & National Institute for Materials Science (NIMS), Japan, 2023 #
#                   All rights reserved. Version 2023.07                     #
#                                                                            #
#   This copy of Pearson's Crystal Data is licensed to:                      #
#   Hunter College - City University of New York                             #
#                                                                            #
##############################################################################

data_1007208
_audit_creation_date                     2024-02-24
_audit_creation_method
;
Pearson's Crystal Data browser
;
#_database_code_PCD                      1007208
_database_code_PDF                       ?

# Entry summary

_chemical_formula_structural             'Dy~3~ Ni~6~ Ga~2~'
_chemical_formula_sum                    'Dy3 Ga2 Ni6'
_chemical_name_mineral                   ?
_chemical_compound_source                ?
_chemical_name_structure_type            Ce~3~Ni~6~Si~2~,cI44,229
_chemical_formula_weight                 979.1

# Bibliographic data

_publ_section_title
;
Crystal structure of R~3~Ni~6~Ga~2~ (R= Pr, Nd, Sm, Gd, Tb, Dy, Ho, Er, Tm, Y)
;
_journal_coden_ASTM                      DNUNDU
_journal_name_full                       'Dopov. Akad. Nauk Ukr. RSR, Ser. A'
_journal_year                            1978
_journal_volume                          ?
_journal_page_first                      759
_journal_page_last                       763
_journal_language                        Ukrainian
loop_
 _publ_author_name
 _publ_author_address
'Yarmolyuk Y.P.'
;
Lviv Ivan Franko State University
Lviv
Ukraine
;
'Grin Y.'
;
Lviv Ivan Franko State University
Lviv
Ukraine
;
'Gladyshevskii E.I.'
;
Lviv Ivan Franko State University
Department of Inorganic Chemistry
Lviv
Ukraine
;

# Standardized crystallographic data

_cell_length_a                           8.862
_cell_length_b                           8.862
_cell_length_c                           8.862
_cell_angle_alpha                        90
_cell_angle_beta                         90
_cell_angle_gamma                        90
_cell_volume                             696
_cell_formula_units_Z                    4
_space_group_IT_number                   229
_space_group_name_H-M_alt                'I m -3 m'
loop_
 _space_group_symop_id
 _space_group_symop_operation_xyz
 1 'x, y, z'
 2 '-x, -y, -z'
 3 '-x, -y, z'
 4 '-x, -z, -y'
 5 '-x, -z, y'
 6 '-x, y, -z'
 7 '-x, y, z'
 8 '-x, z, -y'
 9 '-x, z, y'
 10 '-y, -x, -z'
 11 '-y, -x, z'
 12 '-y, -z, -x'
 13 '-y, -z, x'
 14 '-y, x, -z'
 15 '-y, x, z'
 16 '-y, z, -x'
 17 '-y, z, x'
 18 '-z, -x, -y'
 19 '-z, -x, y'
 20 '-z, -y, -x'
 21 '-z, -y, x'
 22 '-z, x, -y'
 23 '-z, x, y'
 24 '-z, y, -x'
 25 '-z, y, x'
 26 'x, -y, -z'
 27 'x, -y, z'
 28 'x, -z, -y'
 29 'x, -z, y'
 30 'x, y, -z'
 31 'x, z, -y'
 32 'x, z, y'
 33 'y, -x, -z'
 34 'y, -x, z'
 35 'y, -z, -x'
 36 'y, -z, x'
 37 'y, x, -z'
 38 'y, x, z'
 39 'y, z, -x'
 40 'y, z, x'
 41 'z, -x, -y'
 42 'z, -x, y'
 43 'z, -y, -x'
 44 'z, -y, x'
 45 'z, x, -y'
 46 'z, x, y'
 47 'z, y, -x'
 48 'z, y, x'
 49 '1/2+x, 1/2+y, 1/2+z'
 50 '1/2-x, 1/2-y, 1/2-z'
 51 '1/2-x, 1/2-y, 1/2+z'
 52 '1/2-x, 1/2-z, 1/2-y'
 53 '1/2-x, 1/2-z, 1/2+y'
 54 '1/2-x, 1/2+y, 1/2-z'
 55 '1/2-x, 1/2+y, 1/2+z'
 56 '1/2-x, 1/2+z, 1/2-y'
 57 '1/2-x, 1/2+z, 1/2+y'
 58 '1/2-y, 1/2-x, 1/2-z'
 59 '1/2-y, 1/2-x, 1/2+z'
 60 '1/2-y, 1/2-z, 1/2-x'
 61 '1/2-y, 1/2-z, 1/2+x'
 62 '1/2-y, 1/2+x, 1/2-z'
 63 '1/2-y, 1/2+x, 1/2+z'
 64 '1/2-y, 1/2+z, 1/2-x'
 65 '1/2-y, 1/2+z, 1/2+x'
 66 '1/2-z, 1/2-x, 1/2-y'
 67 '1/2-z, 1/2-x, 1/2+y'
 68 '1/2-z, 1/2-y, 1/2-x'
 69 '1/2-z, 1/2-y, 1/2+x'
 70 '1/2-z, 1/2+x, 1/2-y'
 71 '1/2-z, 1/2+x, 1/2+y'
 72 '1/2-z, 1/2+y, 1/2-x'
 73 '1/2-z, 1/2+y, 1/2+x'
 74 '1/2+x, 1/2-y, 1/2-z'
 75 '1/2+x, 1/2-y, 1/2+z'
 76 '1/2+x, 1/2-z, 1/2-y'
 77 '1/2+x, 1/2-z, 1/2+y'
 78 '1/2+x, 1/2+y, 1/2-z'
 79 '1/2+x, 1/2+z, 1/2-y'
 80 '1/2+x, 1/2+z, 1/2+y'
 81 '1/2+y, 1/2-x, 1/2-z'
 82 '1/2+y, 1/2-x, 1/2+z'
 83 '1/2+y, 1/2-z, 1/2-x'
 84 '1/2+y, 1/2-z, 1/2+x'
 85 '1/2+y, 1/2+x, 1/2-z'
 86 '1/2+y, 1/2+x, 1/2+z'
 87 '1/2+y, 1/2+z, 1/2-x'
 88 '1/2+y, 1/2+z, 1/2+x'
 89 '1/2+z, 1/2-x, 1/2-y'
 90 '1/2+z, 1/2-x, 1/2+y'
 91 '1/2+z, 1/2-y, 1/2-x'
 92 '1/2+z, 1/2-y, 1/2+x'
 93 '1/2+z, 1/2+x, 1/2-y'
 94 '1/2+z, 1/2+x, 1/2+y'
 95 '1/2+z, 1/2+y, 1/2-x'
 96 '1/2+z, 1/2+y, 1/2+x'

# Atomic positions taken from type-defining entry

loop_
 _atom_type_symbol
 Ni
 Dy
 Ga
loop_
 _atom_site_label
 _atom_site_type_symbol
 _atom_site_symmetry_multiplicity
 _atom_site_Wyckoff_symbol
 _atom_site_fract_x
 _atom_site_fract_y
 _atom_site_fract_z
 _atom_site_occupancy
 Ni1 Ni 24 h 0 0.33 0.33 1
 Dy1 Dy 12 e 0.28 0 0 1
 Ga1 Ga 8 c 0.25 0.25 0.25 1


_exptl_crystal_colour                    ?
_exptl_crystal_density_meas              ?
_exptl_crystal_density_diffrn            9.34
_cell_measurement_temperature            ?
_cell_measurement_radiation              'X-rays, Cr K'
_cell_measurement_reflns_used            ?
_diffrn_ambient_temperature              ?
_diffrn_measurement_device               'Debye-Scherrer film'
_diffrn_measurement_device_type          ?
_diffrn_radiation_type                   ?
_diffrn_reflns_number                    ?
_exptl_absorpt_coefficient_mu            ?
_exptl_absorpt_correction_type           ?
_computing_structure_solution            ?
_refine_ls_number_parameters             ?
_refine_ls_number_reflns                 ?
_refine_ls_R_factor_gt                   ?
_refine_ls_wR_factor_gt                  ?

# End of data set 1007208

