##############################################################################
#                                                                            #
# Ho-Pd-Sb         # Ho5Pd2Sb                                      # 1007045 #
#                                                                            #
##############################################################################
#                                                                            #
#                           Pearson's Crystal Data                           #
#      Crystal Structure Database for Inorganic Compounds (on DVD)           #
#                              Release 2023/24                               #
#                  Editors: Pierre Villars and Karin Cenzual                 #
#                                                                            #
#   Copyright (c) ASM International & Material Phases Data System (MPDS),    #
# Switzerland & National Institute for Materials Science (NIMS), Japan, 2023 #
#                   All rights reserved. Version 2023.07                     #
#                                                                            #
#   This copy of Pearson's Crystal Data is licensed to:                      #
#   Hunter College - City University of New York                             #
#                                                                            #
##############################################################################

data_1007045
_audit_creation_date                     2024-02-25
_audit_creation_method
;
Pearson's Crystal Data browser
;
#_database_code_PCD                      1007045
_database_code_PDF                       ?

# Entry summary

_chemical_formula_structural             'Ho~5~ Pd~2~ Sb'
_chemical_formula_sum                    'Ho5 Pd2 Sb'
_chemical_name_mineral                   ?
_chemical_compound_source                ?
_chemical_name_structure_type            Mo~5~SiB~2~,tI32,140
_chemical_formula_weight                 1159.2

# Bibliographic data

_publ_section_title
;
New compounds RE~5~Ni~2~Sb (RE= Y, Tb, Dy, Ho, Er, Lu), Ho~5~Pd~2~Sb and their crystal structure
;
_journal_coden_ASTM                      JALCEU
_journal_name_full                       'J. Alloys Compd.'
_journal_year                            1996
_journal_volume                          236
_journal_page_first                      203
_journal_page_last                       205
_journal_language                        English
loop_
 _publ_author_name
 _publ_author_address
'Mozharivskyj Y.A.'
;
Lviv Ivan Franko State University
Department of Analytical Chemistry
Lviv
Ukraine
;
'Kuz'ma Y.B.'
;
Lviv Ivan Franko State University
Department of Analytical Chemistry
Lviv
Ukraine
;

# Standardized crystallographic data

_cell_length_a                           7.6795
_cell_length_b                           7.6795
_cell_length_c                           13.476
_cell_angle_alpha                        90
_cell_angle_beta                         90
_cell_angle_gamma                        90
_cell_volume                             794.7
_cell_formula_units_Z                    4
_space_group_IT_number                   140
_space_group_name_H-M_alt                'I 4/m c m'
loop_
 _space_group_symop_id
 _space_group_symop_operation_xyz
 1 'x, y, z'
 2 '-x, -y, -z'
 3 '-x, -y, z'
 4 '-x, y, 1/2-z'
 5 '-x, y, 1/2+z'
 6 '-y, -x, 1/2-z'
 7 '-y, -x, 1/2+z'
 8 '-y, x, -z'
 9 '-y, x, z'
 10 'x, -y, 1/2-z'
 11 'x, -y, 1/2+z'
 12 'x, y, -z'
 13 'y, -x, -z'
 14 'y, -x, z'
 15 'y, x, 1/2-z'
 16 'y, x, 1/2+z'
 17 '1/2+x, 1/2+y, 1/2+z'
 18 '1/2-x, 1/2-y, 1/2-z'
 19 '1/2-x, 1/2-y, 1/2+z'
 20 '1/2-x, 1/2+y, 1-z'
 21 '1/2-x, 1/2+y, 1+z'
 22 '1/2-y, 1/2-x, 1-z'
 23 '1/2-y, 1/2-x, 1+z'
 24 '1/2-y, 1/2+x, 1/2-z'
 25 '1/2-y, 1/2+x, 1/2+z'
 26 '1/2+x, 1/2-y, 1-z'
 27 '1/2+x, 1/2-y, 1+z'
 28 '1/2+x, 1/2+y, 1/2-z'
 29 '1/2+y, 1/2-x, 1/2-z'
 30 '1/2+y, 1/2-x, 1/2+z'
 31 '1/2+y, 1/2+x, 1-z'
 32 '1/2+y, 1/2+x, 1+z'

# Atomic positions taken from type-defining entry

loop_
 _atom_type_symbol
 Ho
 Pd
 Sb
loop_
 _atom_site_label
 _atom_site_type_symbol
 _atom_site_symmetry_multiplicity
 _atom_site_Wyckoff_symbol
 _atom_site_fract_x
 _atom_site_fract_y
 _atom_site_fract_z
 _atom_site_occupancy
 Ho1 Ho 16 l 0.1641 0.6641 0.1398 1
 Pd1 Pd 8 h 0.6216 0.1216 0 1
 Ho2 Ho 4 c 0 0 0 1
 Sb1 Sb 4 a 0 0 0.25 1


_exptl_crystal_colour                    ?
_exptl_crystal_density_meas              ?
_exptl_crystal_density_diffrn            9.69
_cell_measurement_temperature            ?
_cell_measurement_radiation              'X-rays, Cu Ka1'
_cell_measurement_reflns_used            ?
_diffrn_ambient_temperature              ?
_diffrn_measurement_device               'Guinier film'
_diffrn_measurement_device_type          ?
_diffrn_radiation_type                   ?
_diffrn_reflns_number                    ?
_exptl_absorpt_coefficient_mu            ?
_exptl_absorpt_correction_type           ?
_computing_structure_solution            ?
_refine_ls_number_parameters             ?
_refine_ls_number_reflns                 ?
_refine_ls_R_factor_gt                   ?
_refine_ls_wR_factor_gt                  ?

# Published diffraction lines

loop_
 _refln_index_h
 _refln_index_k
 _refln_index_l
 _refln_d_spacing
 _refln_intensity_meas
 0 0 2 6.756 3
 1 1 2 4.234 2
 2 1 1 3.333 5
 1 1 4 2.865 7
 2 1 3 2.728 8
 2 2 0 2.717 7
 2 0 4 2.533 8
 3 1 0 2.427 8
 3 1 2 2.283 2
 0 0 6 2.246 3
 2 1 5 2.122 5
 2 2 4 2.114 2
 1 1 6 2.076 2
 3 1 4 1.971 2
 2 0 6 1.938 2
 3 2 3 1.924 2
 4 0 0 1.92 2
 4 1 1 1.845 5
 3 3 0 1.811 3
 4 1 3 1.72 5
 4 2 0 1.716 3
 0 0 8 1.685 5
 2 1 7 1.68 3
 4 0 4 1.668 3
 3 1 6 1.649 3
 3 3 4 1.594 7
 5 1 0 1.506 2
 4 0 6 1.459 2
 2 2 8 1.431 2
 3 3 6 1.41 2
 3 1 8 1.384 7
 5 1 4 1.375 5
 4 1 7 1.338 5
 4 4 2 1.332 2
 6 0 0 1.28 3
 4 4 4 1.26 2
 3 3 8 1.233 2
 3 2 9 1.225 2
 4 2 8 1.203 3
 4 4 6 1.162 2
 5 4 3 1.159 3
 5 1 8 1.123 2
 6 0 6 1.112 2
 4 4 8 1.057 3

# End of data set 1007045

