##############################################################################
#                                                                            #
# Ge-Nd-Os         # Nd3Os4Ge13                                    # 1008496 #
#                                                                            #
##############################################################################
#                                                                            #
#                           Pearson's Crystal Data                           #
#      Crystal Structure Database for Inorganic Compounds (on DVD)           #
#                              Release 2023/24                               #
#                  Editors: Pierre Villars and Karin Cenzual                 #
#                                                                            #
#   Copyright (c) ASM International & Material Phases Data System (MPDS),    #
# Switzerland & National Institute for Materials Science (NIMS), Japan, 2023 #
#                   All rights reserved. Version 2023.07                     #
#                                                                            #
#   This copy of Pearson's Crystal Data is licensed to:                      #
#   Hunter College - City University of New York                             #
#                                                                            #
##############################################################################

data_1008496
_audit_creation_date                     2024-02-25
_audit_creation_method
;
Pearson's Crystal Data browser
;
#_database_code_PCD                      1008496
_database_code_PDF                       04-017-7549

# Entry summary

_chemical_formula_structural             'Nd~3~ Os~4~ Ge~13~'
_chemical_formula_sum                    'Ge13 Nd3 Os4'
_chemical_name_mineral                   ?
_chemical_compound_source                ?
_chemical_name_structure_type            Y~3~Co~4~Ge~13~,cP64,223
_chemical_formula_weight                 2137.2

# Bibliographic data

_publ_section_title
'New ternary germanides of neodymium and precious metals'                     
_journal_coden_ASTM                      RMLYAQ
_journal_name_full                       'Russ. Metall.'
_journal_year                            1989
_journal_volume                          ?
_journal_issue                           1
_journal_page_first                      210
_journal_page_last                       212
_journal_language                        English
loop_
 _publ_author_name
 _publ_author_address
'Salamakha P.S.'
;
Lviv Ivan Franko State University
Department of Inorganic Chemistry
Lviv
Ukraine
;
'Bodak O.I.'
;
Lviv Ivan Franko State University
Department of Inorganic Chemistry
Lviv
Ukraine
;
'Pecharskii V.K.'
;
Lviv Ivan Franko State University
Department of Inorganic Chemistry
Lviv
Ukraine
;
'Belskii V.K.'
;
Lviv Ivan Franko State University
Lviv
Ukraine
;

# Standardized crystallographic data

_cell_length_a                           9.07
_cell_length_b                           9.07
_cell_length_c                           9.07
_cell_angle_alpha                        90
_cell_angle_beta                         90
_cell_angle_gamma                        90
_cell_volume                             746.1
_cell_formula_units_Z                    2
_space_group_IT_number                   223
_space_group_name_H-M_alt                'P m -3 n'
loop_
 _space_group_symop_id
 _space_group_symop_operation_xyz
 1 'x, y, z'
 2 '1/2-x, 1/2-z, 1/2-y'
 3 '1/2-x, 1/2-z, 1/2+y'
 4 '1/2-x, 1/2+z, 1/2-y'
 5 '1/2-x, 1/2+z, 1/2+y'
 6 '-x, -y, -z'
 7 '-x, -y, z'
 8 '-x, y, -z'
 9 '-x, y, z'
 10 '1/2-y, 1/2-x, 1/2-z'
 11 '1/2-y, 1/2-x, 1/2+z'
 12 '1/2-y, 1/2+x, 1/2-z'
 13 '1/2-y, 1/2+x, 1/2+z'
 14 '-y, -z, -x'
 15 '-y, -z, x'
 16 '-y, z, -x'
 17 '-y, z, x'
 18 '1/2-z, 1/2-y, 1/2-x'
 19 '1/2-z, 1/2-y, 1/2+x'
 20 '1/2-z, 1/2+y, 1/2-x'
 21 '1/2-z, 1/2+y, 1/2+x'
 22 '-z, -x, -y'
 23 '-z, -x, y'
 24 '-z, x, -y'
 25 '-z, x, y'
 26 '1/2+x, 1/2-z, 1/2-y'
 27 '1/2+x, 1/2-z, 1/2+y'
 28 '1/2+x, 1/2+z, 1/2-y'
 29 '1/2+x, 1/2+z, 1/2+y'
 30 'x, -y, -z'
 31 'x, -y, z'
 32 'x, y, -z'
 33 '1/2+y, 1/2-x, 1/2-z'
 34 '1/2+y, 1/2-x, 1/2+z'
 35 '1/2+y, 1/2+x, 1/2-z'
 36 '1/2+y, 1/2+x, 1/2+z'
 37 'y, -z, -x'
 38 'y, -z, x'
 39 'y, z, -x'
 40 'y, z, x'
 41 '1/2+z, 1/2-y, 1/2-x'
 42 '1/2+z, 1/2-y, 1/2+x'
 43 '1/2+z, 1/2+y, 1/2-x'
 44 '1/2+z, 1/2+y, 1/2+x'
 45 'z, -x, -y'
 46 'z, -x, y'
 47 'z, x, -y'
 48 'z, x, y'
loop_
 _atom_type_symbol
 Ge
 Os
 Nd
loop_
 _atom_site_label
 _atom_site_type_symbol
 _atom_site_symmetry_multiplicity
 _atom_site_Wyckoff_symbol
 _atom_site_fract_x
 _atom_site_fract_y
 _atom_site_fract_z
 _atom_site_occupancy
 Ge2 Ge 24 k 0 0.153 0.356 0.333
 Ge3 Ge 24 k 0 0.154 0.293 0.667
 Os Os 8 e 0.25 0.25 0.25 1
 Nd Nd 6 c 0.25 0 0.5 1
 Ge1 Ge 2 a 0 0 0 1


_exptl_crystal_colour                    ?
_exptl_crystal_density_meas              ?
_exptl_crystal_density_diffrn            9.51
_cell_measurement_temperature            ?
_cell_measurement_radiation              'X-rays, Cu Ka'
_cell_measurement_reflns_used            ?
_diffrn_ambient_temperature              ?
_diffrn_measurement_device               'automatic diffractometer'
_diffrn_measurement_device_type          HZG-4A
_diffrn_radiation_type                   'X-rays, Cu Ka'
_diffrn_reflns_number                    ?
_exptl_absorpt_coefficient_mu            ?
_exptl_absorpt_correction_type           ?
_computing_structure_solution            'starting values from the literature'
_refine_ls_number_parameters             ?
_refine_ls_number_reflns                 100
_refine_ls_R_factor_gt                   ?
_refine_ls_wR_factor_gt                  ?
_pd_proc_ls_proof_R_factor               ?
_pd_proc_ls_proof_wR_factor              ?
_refine_ls_R_I_factor                    0.08

# Published diffraction lines

loop_
 _refln_index_h
 _refln_index_k
 _refln_index_l
 _refln_d_spacing
 _refln_intensity_meas
 0 1 1 6.414 66
 0 0 2 4.536 541
 0 1 2 4.056 115
 1 1 2 3.703 69
 0 2 2 3.205 343
 0 1 3 2.869 10
 2 2 2 2.617 532
 0 2 3 2.515 998
 1 2 3 2.425 424
 0 0 4 2.265 600
 0 1 4 2.198 105
 0 3 3 2.137 95
 0 2 4 2.027 542
 1 2 4 1.98 61
 2 3 3 1.932 6
 2 2 4 1.85 580
 0 3 4 1.815 22
 0 1 5 1.779 30
 0 2 5 1.684 98
 1 2 5 1.655 12
 0 4 4 1.603 242
 0 3 5 1.555 110
 1 3 5 1.533 9
 0 0 6 1.512 74
 0 1 6 1.492 27
 1 1 6 1.47 98
 0 2 6 1.435 122
 0 4 5 1.416 49
 1 4 5 1.399 5
 2 2 6 1.367 432
 0 3 6 1.351 110
 1 3 6 1.336 42
 4 4 4 1.308 88
 2 3 6 1.296 49
 0 5 5 1.283 4
 0 4 6 1.257 56
 0 2 7 1.246 67
 1 2 7 1.234 11
 2 4 6 1.212 124
 1 3 7 1.187 11
 0 5 6 1.162 18
 1 5 6 1.152 11
 0 0 8 1.134 65
 1 1 8 1.116 17
 0 2 8 1.1 152
 1 2 8 1.092 25
 3 5 6 1.084 8
 0 6 6 1.069 111
 0 3 8 1.062 14
 0 5 7 1.054 10
 2 6 6 1.04 169
 2 3 8 1.034 83
 0 4 8 1.014 140
 0 1 9 1.002 7
 3 5 7 0.996 14
 2 4 8 0.989 45
 0 6 7 0.984 35
 1 2 9 0.978 12
 4 6 6 0.967 59
 0 3 9 0.956 29
 1 3 9 0.95 18
 2 5 8 0.941 15
 2 3 9 0.936 24

# End of data set 1008496

