##############################################################################
#                                                                            #
# Ce-Ge-Pt         # Ce3Pt4Ge6                                     # 1008294 #
#                                                                            #
##############################################################################
#                                                                            #
#                           Pearson's Crystal Data                           #
#      Crystal Structure Database for Inorganic Compounds (on DVD)           #
#                              Release 2023/24                               #
#                  Editors: Pierre Villars and Karin Cenzual                 #
#                                                                            #
#   Copyright (c) ASM International & Material Phases Data System (MPDS),    #
# Switzerland & National Institute for Materials Science (NIMS), Japan, 2023 #
#                   All rights reserved. Version 2023.07                     #
#                                                                            #
#   This copy of Pearson's Crystal Data is licensed to:                      #
#   Hunter College - City University of New York                             #
#                                                                            #
##############################################################################

data_1008294
_audit_creation_date                     2024-02-24
_audit_creation_method
;
Pearson's Crystal Data browser
;
#_database_code_PCD                      1008294
_database_code_PDF                       ?

# Entry summary

_chemical_formula_structural             'Ce~3~ Pt~4~ Ge~6~'
_chemical_formula_sum                    'Ce3 Ge6 Pt4'
_chemical_name_mineral                   ?
_chemical_compound_source                ?
_chemical_name_structure_type            Ce~3~Pt~4~Ge~6~,oS32,63
_chemical_formula_weight                 1636.3

# Bibliographic data

_publ_section_title
'New ternary compounds in the Ce-Pd-Ge system'                                
_journal_coden_ASTM                      ICCIC6
_journal_name_full
'Abstr. 6th Int. Conf. Crystal Chem. Intermet. Compd.'                        
_journal_year                            1995
_journal_volume                          ?
_journal_page_first                      93
_journal_page_last                       ?
_journal_language                        English
loop_
 _publ_author_name
 _publ_author_address
'Seropegin Y.D.'
;
Moscow M.V. Lomonosov State University (MSU)
Department of Chemistry
Moscow
Russia
;
'Gribanov A.V.'
;
Moscow M.V. Lomonosov State University (MSU)
Department of Chemistry
Moscow
Russia
;
'Bodak O.I.'
;
Lviv Ivan Franko State University
Department of Inorganic Chemistry
Lviv
Ukraine
;

# Standardized crystallographic data

_cell_length_a                           4.419
_cell_length_b                           26.222
_cell_length_c                           4.422
_cell_angle_alpha                        90
_cell_angle_beta                         90
_cell_angle_gamma                        90
_cell_volume                             512.4
_cell_formula_units_Z                    2
_space_group_IT_number                   63
_space_group_name_H-M_alt                'C m c m'
loop_
 _space_group_symop_id
 _space_group_symop_operation_xyz
 1 'x, y, z'
 2 '-x, -y, -z'
 3 '-x, -y, 1/2+z'
 4 '-x, y, 1/2-z'
 5 '-x, y, z'
 6 'x, -y, -z'
 7 'x, -y, 1/2+z'
 8 'x, y, 1/2-z'
 9 '1/2+x, 1/2+y, z'
 10 '1/2-x, 1/2-y, -z'
 11 '1/2-x, 1/2-y, 1/2+z'
 12 '1/2-x, 1/2+y, 1/2-z'
 13 '1/2-x, 1/2+y, z'
 14 '1/2+x, 1/2-y, -z'
 15 '1/2+x, 1/2-y, 1/2+z'
 16 '1/2+x, 1/2+y, 1/2-z'

# Atomic positions taken from type-defining entry

loop_
 _atom_type_symbol
 Ge
 Ce
 Pt
loop_
 _atom_site_label
 _atom_site_type_symbol
 _atom_site_symmetry_multiplicity
 _atom_site_Wyckoff_symbol
 _atom_site_fract_x
 _atom_site_fract_y
 _atom_site_fract_z
 _atom_site_occupancy
 Ge1 Ge 8 g 0.201 0.0356 0.25 0.500
 Ce1 Ce 4 c 0 0.1575 0.25 1
 Pt1 Pt 4 c 0 0.29577 0.25 1
 Ge2 Ge 4 c 0 0.3898 0.25 1
 Ce2 Ce 4 c 0 0.5292 0.25 0.500
 Ge3 Ge 4 c 0 0.7505 0.25 1
 Pt2 Pt 4 c 0 0.93714 0.25 1


_exptl_crystal_colour                    ?
_exptl_crystal_density_meas              ?
_exptl_crystal_density_diffrn            10.61
_cell_measurement_temperature            ?
_cell_measurement_radiation              ?
_cell_measurement_reflns_used            ?
_diffrn_ambient_temperature              ?
_diffrn_measurement_device               ?
_diffrn_measurement_device_type          ?
_diffrn_radiation_type                   ?
_diffrn_reflns_number                    ?
_exptl_absorpt_coefficient_mu            ?
_exptl_absorpt_correction_type           ?
_computing_structure_solution            ?
_refine_ls_number_parameters             ?
_refine_ls_number_reflns                 ?
_refine_ls_R_factor_gt                   ?
_refine_ls_wR_factor_gt                  ?

# End of data set 1008294

