##############################################################################
#                                                                            #
# Pd-Si-Sm         # Sm4Pd4Si3                                     # 1008486 #
#                                                                            #
##############################################################################
#                                                                            #
#                           Pearson's Crystal Data                           #
#      Crystal Structure Database for Inorganic Compounds (on DVD)           #
#                              Release 2023/24                               #
#                  Editors: Pierre Villars and Karin Cenzual                 #
#                                                                            #
#   Copyright (c) ASM International & Material Phases Data System (MPDS),    #
# Switzerland & National Institute for Materials Science (NIMS), Japan, 2023 #
#                   All rights reserved. Version 2023.07                     #
#                                                                            #
#   This copy of Pearson's Crystal Data is licensed to:                      #
#   Hunter College - City University of New York                             #
#                                                                            #
##############################################################################

data_1008486
_audit_creation_date                     2024-02-25
_audit_creation_method
;
Pearson's Crystal Data browser
;
#_database_code_PCD                      1008486
_database_code_PDF                       04-011-1566

# Entry summary

_chemical_formula_structural             'Sm~4~ Pd~4~ Si~3~'
_chemical_formula_sum                    'Pd4 Si3 Sm4'
_chemical_name_mineral                   ?
_chemical_compound_source                ?
_chemical_name_structure_type            Nd~4~Rh~4~Ge~3~,mS44,15
_chemical_formula_weight                 1111.5

# Bibliographic data

_publ_section_title
'The crystal structure of the novel ternary silicide Sm~4~Pd~4~Si~3~'         
_journal_coden_ASTM                      JALCEU
_journal_name_full                       'J. Alloys Compd.'
_journal_year                            1996
_journal_volume                          240
_journal_page_first                      16
_journal_page_last                       18
_journal_language                        English
loop_
 _publ_author_name
 _publ_author_address
'Prots Y.M.'
;
Lviv Ivan Franko State University
Department of Inorganic Chemistry
Lviv
Ukraine
;
'Stepien Damm J.'
;
Polish Academy of Sciences (PAN)
Trzebiatowski W. Institute of Low Temperature and Structure Research
Warsaw
Poland
;
'Salamakha P.S.'
;
Lviv Ivan Franko State University
Department of Inorganic Chemistry
Lviv
Ukraine
;
'Oleksyn O.Y.'
;
Lviv Ivan Franko State University
Department of Inorganic Chemistry
Lviv
Ukraine
;
'Sologub O.L.'
;
Lviv Ivan Franko State University
Department of Inorganic Chemistry
Lviv
Ukraine
;
'Bodak O.I.'
;
Lviv Ivan Franko State University
Department of Inorganic Chemistry
Lviv
Ukraine
;

# Standardized crystallographic data

_cell_length_a                           20.693
_cell_length_b                           5.584
_cell_length_c                           7.699
_cell_angle_alpha                        90
_cell_angle_beta                         109.48
_cell_angle_gamma                        90
_cell_volume                             838.7
_cell_formula_units_Z                    4
_space_group_IT_number                   15
_space_group_name_H-M_alt                'C 1 2/c 1'
loop_
 _space_group_symop_id
 _space_group_symop_operation_xyz
 1 'x, y, z'
 2 '-x, -y, -z'
 3 '-x, y, 1/2-z'
 4 'x, -y, 1/2+z'
 5 '1/2+x, 1/2+y, z'
 6 '1/2-x, 1/2-y, -z'
 7 '1/2-x, 1/2+y, 1/2-z'
 8 '1/2+x, 1/2-y, 1/2+z'
loop_
 _atom_type_symbol
 Pd
 Sm
 Si
loop_
 _atom_site_label
 _atom_site_type_symbol
 _atom_site_symmetry_multiplicity
 _atom_site_Wyckoff_symbol
 _atom_site_fract_x
 _atom_site_fract_y
 _atom_site_fract_z
 _atom_site_occupancy
 Pd1 Pd 8 f 0.0619 0.139 0.0216 1
 Sm2 Sm 8 f 0.1699 0.1186 0.4015 1
 Si2 Si 8 f 0.1737 0.3759 0.0602 1
 Pd2 Pd 8 f 0.2791 0.1473 0.1864 1
 Sm1 Sm 8 f 0.4328 0.1406 0.3302 1
 Si1 Si 4 e 0 0.1302 0.25 1


_exptl_crystal_colour                    ?
_exptl_crystal_density_meas              ?
_exptl_crystal_density_diffrn            8.80
_cell_measurement_temperature            ?
_cell_measurement_radiation              'X-rays, Mo Ka'
_cell_measurement_wavelength             0.71073
_cell_measurement_reflns_used            25
_diffrn_ambient_temperature              ?
_diffrn_measurement_device               'automatic diffractometer'
_diffrn_measurement_device_type          'Kuma Diffraction KM-4'
_diffrn_radiation_type                   'X-rays, Mo Ka'
_diffrn_radiation_wavelength             0.71073
_diffrn_reflns_number                    11346
_exptl_absorpt_coefficient_mu            36.23
_exptl_absorpt_correction_type           yes
_computing_structure_solution            'direct methods, Fourier synthesis'
_refine_ls_number_parameters             52
_refine_ls_number_reflns                 1652
_refine_ls_R_factor_gt                   0.0537
_refine_ls_wR_factor_gt                  0.0435

# End of data set 1008486

