##############################################################################
#                                                                            #
# Ru-Si-U          # U2Ru12Si7                                     # 1008398 #
#                                                                            #
##############################################################################
#                                                                            #
#                           Pearson's Crystal Data                           #
#      Crystal Structure Database for Inorganic Compounds (on DVD)           #
#                              Release 2023/24                               #
#                  Editors: Pierre Villars and Karin Cenzual                 #
#                                                                            #
#   Copyright (c) ASM International & Material Phases Data System (MPDS),    #
# Switzerland & National Institute for Materials Science (NIMS), Japan, 2023 #
#                   All rights reserved. Version 2023.07                     #
#                                                                            #
#   This copy of Pearson's Crystal Data is licensed to:                      #
#   Hunter College - City University of New York                             #
#                                                                            #
##############################################################################

data_1008398
_audit_creation_date                     2024-02-25
_audit_creation_method
;
Pearson's Crystal Data browser
;
#_database_code_PCD                      1008398
_database_code_PDF                       04-018-7904

# Entry summary

_chemical_formula_structural             'U~2~ Ru~12~ Si~7~'
_chemical_formula_sum                    'Ru12 Si7 U2'
_chemical_name_mineral                   ?
_chemical_compound_source                ?
_chemical_name_structure_type            U~2~Ru~12~Si~7~,oP84,62
_chemical_formula_weight                 1885.5

# Bibliographic data

_publ_section_title
'Crystal structure of the new ternary compound U~2~Ru~12~Si~7~'               
_journal_coden_ASTM                      ICCIC8
_journal_name_full
'Abstr. 8th Int. Conf. Crystal Chem. Intermet. Compd.'                        
_journal_year                            2002
_journal_volume                          ?
_journal_page_first                      110
_journal_page_last                       ?
_journal_language                        English
loop_
 _publ_author_name
 _publ_author_address
'Zelinskii A.V.'
;
Lviv Ivan Franko National University
Department of Inorganic Chemistry
Lviv
Ukraine
;
'Bodak O.I.'
;
Lviv Ivan Franko National University
Department of Inorganic Chemistry
Lviv
Ukraine
;
'Davydov V.M.'
;
Lviv Ivan Franko National University
Department of Inorganic Chemistry
Lviv
Ukraine
;
'Noel H.'
;
Rennes I University
Sciences Chimiques de Rennes
Rennes
France
;
'Rogl P.'
;
Vienna University
Institut fur Physikalische Chemie
Vienna
Austria
;
'Seropegin Y.D.'
;
Moscow M.V. Lomonosov State University (MSU)
Department of Chemistry
Moscow
Russia
;

# Standardized crystallographic data

_cell_length_a                           11.169
_cell_length_b                           3.989
_cell_length_c                           26.185
_cell_angle_alpha                        90
_cell_angle_beta                         90
_cell_angle_gamma                        90
_cell_volume                             1166.6
_cell_formula_units_Z                    4
_space_group_IT_number                   62
_space_group_name_H-M_alt                'P n m a'
loop_
 _space_group_symop_id
 _space_group_symop_operation_xyz
 1 'x, y, z'
 2 '1/2-x, -y, 1/2+z'
 3 '1/2-x, 1/2+y, 1/2+z'
 4 '-x, -y, -z'
 5 '-x, 1/2+y, -z'
 6 '1/2+x, 1/2-y, 1/2-z'
 7 '1/2+x, y, 1/2-z'
 8 'x, 1/2-y, z'
loop_
 _atom_type_symbol
 Si
 Ru
 U
loop_
 _atom_site_label
 _atom_site_type_symbol
 _atom_site_symmetry_multiplicity
 _atom_site_Wyckoff_symbol
 _atom_site_fract_x
 _atom_site_fract_y
 _atom_site_fract_z
 _atom_site_occupancy
 Si1 Si 4 c 0.0329 0.25 0.0654 1
 Ru1 Ru 4 c 0.0358 0.25 0.16592 1
 Ru4 Ru 4 c 0.0549 0.25 0.77023 1
 Ru2 Ru 4 c 0.0799 0.25 0.36821 1
 Ru7 Ru 4 c 0.0917 0.25 0.50771 1
 Ru5 Ru 4 c 0.1077 0.25 0.26514 1
 Ru9 Ru 4 c 0.1203 0.25 0.61224 1
 Si6 Si 4 c 0.2378 0.25 0.1309 1
 Ru8 Ru 4 c 0.2513 0.25 0.0423 1
 Ru6 Ru 4 c 0.27 0.25 0.82842 1
 U2 U 4 c 0.29308 0.25 0.71188 1
 Si7 Si 4 c 0.3165 0.25 0.499 1
 Ru3 Ru 4 c 0.3197 0.25 0.39699 1
 Si2 Si 4 c 0.3266 0.25 0.2907 1
 U1 U 4 c 0.3365 0.25 0.93595 1
 Ru10 Ru 4 c 0.3676 0.25 0.59669 1
 Ru11 Ru 4 c 0.3819 0.25 0.19621 1
 Si5 Si 4 c 0.4562 0.25 0.0599 1
 Si4 Si 4 c 0.485 0.25 0.8164 1
 Si3 Si 4 c 0.5659 0.25 0.6328 1
 Ru12 Ru 4 c 0.5692 0.25 0.53234 1


_exptl_crystal_colour                    ?
_exptl_crystal_density_meas              ?
_exptl_crystal_density_diffrn            10.74
_cell_measurement_temperature            ?
_cell_measurement_radiation              'X-rays, Mo Ka'
_cell_measurement_reflns_used            ?
_diffrn_ambient_temperature              ?
_diffrn_measurement_device               'automatic diffractometer'
_diffrn_measurement_device_type          DARCH-1
_diffrn_radiation_type                   'X-rays, Mo Ka'
_diffrn_reflns_number                    ?
_diffrn_reflns_theta_min                 2.5
_diffrn_reflns_theta_max                 37.5
_exptl_absorpt_coefficient_mu            ?
_exptl_absorpt_correction_type           ?
_computing_structure_solution            'direct methods, Fourier synthesis'
_refine_ls_number_parameters             ?
_refine_ls_number_reflns                 1356
_refine_ls_R_factor_gt                   0.0409
_refine_ls_wR_factor_gt                  0.0422

# End of data set 1008398

