##############################################################################
#                                                                            #
# Ce-Ge-Pt         # Ce3Pt23Ge11                                   # 1008297 #
#                                                                            #
##############################################################################
#                                                                            #
#                           Pearson's Crystal Data                           #
#      Crystal Structure Database for Inorganic Compounds (on DVD)           #
#                              Release 2023/24                               #
#                  Editors: Pierre Villars and Karin Cenzual                 #
#                                                                            #
#   Copyright (c) ASM International & Material Phases Data System (MPDS),    #
# Switzerland & National Institute for Materials Science (NIMS), Japan, 2023 #
#                   All rights reserved. Version 2023.07                     #
#                                                                            #
#   This copy of Pearson's Crystal Data is licensed to:                      #
#   Hunter College - City University of New York                             #
#                                                                            #
##############################################################################

data_1008297
_audit_creation_date                     2024-02-24
_audit_creation_method
;
Pearson's Crystal Data browser
;
#_database_code_PCD                      1008297
_database_code_PDF                       ?

# Entry summary

_chemical_formula_structural             'Ce~3~ Pt~23~ Ge~11~'
_chemical_formula_sum                    'Ce3 Ge11 Pt23'
_chemical_name_mineral                   ?
_chemical_compound_source                ?
_chemical_name_structure_type            Ce~3~Pt~23~Ge~11~,cF296,216
_chemical_formula_weight                 5705.9

# Bibliographic data

_publ_section_title
'New ternary compounds in the Ce-Pd-Ge system'                                
_journal_coden_ASTM                      ICCIC6
_journal_name_full
'Abstr. 6th Int. Conf. Crystal Chem. Intermet. Compd.'                        
_journal_year                            1995
_journal_volume                          ?
_journal_page_first                      93
_journal_page_last                       ?
_journal_language                        English
loop_
 _publ_author_name
 _publ_author_address
'Seropegin Y.D.'
;
Moscow M.V. Lomonosov State University (MSU)
Department of Chemistry
Moscow
Russia
;
'Gribanov A.V.'
;
Moscow M.V. Lomonosov State University (MSU)
Department of Chemistry
Moscow
Russia
;
'Bodak O.I.'
;
Lviv Ivan Franko State University
Department of Inorganic Chemistry
Lviv
Ukraine
;

# Standardized crystallographic data

_cell_length_a                           17.1833
_cell_length_b                           17.1833
_cell_length_c                           17.1833
_cell_angle_alpha                        90
_cell_angle_beta                         90
_cell_angle_gamma                        90
_cell_volume                             5073.6
_cell_formula_units_Z                    8
_space_group_IT_number                   216
_space_group_name_H-M_alt                'F -4 3 m'
loop_
 _space_group_symop_id
 _space_group_symop_operation_xyz
 1 'x, y, z'
 2 '-x, -y, z'
 3 '-x, -z, y'
 4 '-x, y, -z'
 5 '-x, z, -y'
 6 '-y, -x, z'
 7 '-y, -z, x'
 8 '-y, x, -z'
 9 '-y, z, -x'
 10 '-z, -x, y'
 11 '-z, -y, x'
 12 '-z, x, -y'
 13 '-z, y, -x'
 14 'x, -y, -z'
 15 'x, -z, -y'
 16 'x, z, y'
 17 'y, -x, -z'
 18 'y, -z, -x'
 19 'y, x, z'
 20 'y, z, x'
 21 'z, -x, -y'
 22 'z, -y, -x'
 23 'z, x, y'
 24 'z, y, x'
 25 'x, 1/2+y, 1/2+z'
 26 '-x, 1/2-y, 1/2+z'
 27 '-x, 1/2-z, 1/2+y'
 28 '-x, 1/2+y, 1/2-z'
 29 '-x, 1/2+z, 1/2-y'
 30 '-y, 1/2-x, 1/2+z'
 31 '-y, 1/2-z, 1/2+x'
 32 '-y, 1/2+x, 1/2-z'
 33 '-y, 1/2+z, 1/2-x'
 34 '-z, 1/2-x, 1/2+y'
 35 '-z, 1/2-y, 1/2+x'
 36 '-z, 1/2+x, 1/2-y'
 37 '-z, 1/2+y, 1/2-x'
 38 'x, 1/2-y, 1/2-z'
 39 'x, 1/2-z, 1/2-y'
 40 'x, 1/2+z, 1/2+y'
 41 'y, 1/2-x, 1/2-z'
 42 'y, 1/2-z, 1/2-x'
 43 'y, 1/2+x, 1/2+z'
 44 'y, 1/2+z, 1/2+x'
 45 'z, 1/2-x, 1/2-y'
 46 'z, 1/2-y, 1/2-x'
 47 'z, 1/2+x, 1/2+y'
 48 'z, 1/2+y, 1/2+x'
 49 '1/2+x, y, 1/2+z'
 50 '1/2-x, -y, 1/2+z'
 51 '1/2-x, -z, 1/2+y'
 52 '1/2-x, y, 1/2-z'
 53 '1/2-x, z, 1/2-y'
 54 '1/2-y, -x, 1/2+z'
 55 '1/2-y, -z, 1/2+x'
 56 '1/2-y, x, 1/2-z'
 57 '1/2-y, z, 1/2-x'
 58 '1/2-z, -x, 1/2+y'
 59 '1/2-z, -y, 1/2+x'
 60 '1/2-z, x, 1/2-y'
 61 '1/2-z, y, 1/2-x'
 62 '1/2+x, -y, 1/2-z'
 63 '1/2+x, -z, 1/2-y'
 64 '1/2+x, z, 1/2+y'
 65 '1/2+y, -x, 1/2-z'
 66 '1/2+y, -z, 1/2-x'
 67 '1/2+y, x, 1/2+z'
 68 '1/2+y, z, 1/2+x'
 69 '1/2+z, -x, 1/2-y'
 70 '1/2+z, -y, 1/2-x'
 71 '1/2+z, x, 1/2+y'
 72 '1/2+z, y, 1/2+x'
 73 '1/2+x, 1/2+y, z'
 74 '1/2-x, 1/2-y, z'
 75 '1/2-x, 1/2-z, y'
 76 '1/2-x, 1/2+y, -z'
 77 '1/2-x, 1/2+z, -y'
 78 '1/2-y, 1/2-x, z'
 79 '1/2-y, 1/2-z, x'
 80 '1/2-y, 1/2+x, -z'
 81 '1/2-y, 1/2+z, -x'
 82 '1/2-z, 1/2-x, y'
 83 '1/2-z, 1/2-y, x'
 84 '1/2-z, 1/2+x, -y'
 85 '1/2-z, 1/2+y, -x'
 86 '1/2+x, 1/2-y, -z'
 87 '1/2+x, 1/2-z, -y'
 88 '1/2+x, 1/2+z, y'
 89 '1/2+y, 1/2-x, -z'
 90 '1/2+y, 1/2-z, -x'
 91 '1/2+y, 1/2+x, z'
 92 '1/2+y, 1/2+z, x'
 93 '1/2+z, 1/2-x, -y'
 94 '1/2+z, 1/2-y, -x'
 95 '1/2+z, 1/2+x, y'
 96 '1/2+z, 1/2+y, x'

# Atomic positions taken from type-defining entry

loop_
 _atom_type_symbol
 Pt
 Ce
 Ge
loop_
 _atom_site_label
 _atom_site_type_symbol
 _atom_site_symmetry_multiplicity
 _atom_site_Wyckoff_symbol
 _atom_site_fract_x
 _atom_site_fract_y
 _atom_site_fract_z
 _atom_site_occupancy
 Pt1 Pt 48 h 0.0841 0.0841 0.2479 1
 Pt2 Pt 48 h 0.0847 0.0847 0.7541 1
 Ce1 Ce 24 g 0.0018 0.25 0.25 1
 Pt3 Pt 24 f 0.1281 0 0 1
 Ge1 Ge 24 f 0.3285 0 0 1
 Ge2 Ge 16 e 0.1075 0.1075 0.1075 1
 Pt4 Pt 16 e 0.1927 0.1927 0.1927 1
 Ge3 Ge 16 e 0.3357 0.3357 0.3357 1
 Pt5 Pt 16 e 0.4139 0.4139 0.4139 1
 Pt6 Pt 16 e 0.5787 0.5787 0.5787 1
 Ge4 Ge 16 e 0.6672 0.6672 0.6672 1
 Pt7 Pt 16 e 0.8098 0.8098 0.8098 1
 Ge5 Ge 16 e 0.8962 0.8962 0.8962 1


_exptl_crystal_colour                    ?
_exptl_crystal_density_meas              ?
_exptl_crystal_density_diffrn            14.94
_cell_measurement_temperature            ?
_cell_measurement_radiation              ?
_cell_measurement_reflns_used            ?
_diffrn_ambient_temperature              ?
_diffrn_measurement_device               ?
_diffrn_measurement_device_type          ?
_diffrn_radiation_type                   ?
_diffrn_reflns_number                    ?
_exptl_absorpt_coefficient_mu            ?
_exptl_absorpt_correction_type           ?
_computing_structure_solution            ?
_refine_ls_number_parameters             ?
_refine_ls_number_reflns                 ?
_refine_ls_R_factor_gt                   ?
_refine_ls_wR_factor_gt                  ?

# End of data set 1008297

