##############################################################################
#                                                                            #
# Ni-Pr-Si         # Pr5Ni2Si3                                     # 1008392 #
#                                                                            #
##############################################################################
#                                                                            #
#                           Pearson's Crystal Data                           #
#      Crystal Structure Database for Inorganic Compounds (on DVD)           #
#                              Release 2023/24                               #
#                  Editors: Pierre Villars and Karin Cenzual                 #
#                                                                            #
#   Copyright (c) ASM International & Material Phases Data System (MPDS),    #
# Switzerland & National Institute for Materials Science (NIMS), Japan, 2023 #
#                   All rights reserved. Version 2023.07                     #
#                                                                            #
#   This copy of Pearson's Crystal Data is licensed to:                      #
#   Hunter College - City University of New York                             #
#                                                                            #
##############################################################################

data_1008392
_audit_creation_date                     2024-02-25
_audit_creation_method
;
Pearson's Crystal Data browser
;
#_database_code_PCD                      1008392
_database_code_PDF                       ?

# Entry summary

_chemical_formula_structural             'Pr~5~ Ni~2.5~ Si~2.5~'
_chemical_formula_sum                    'Ni2.5 Pr5 Si2.5'
_chemical_name_mineral                   ?
_chemical_compound_source                ?
_chemical_name_structure_type            Ce~5~Ni~2~Si~3~,hP40,176
_chemical_formula_weight                 921.5

# Bibliographic data

_publ_section_title
;
Crystal structure of the Ce~2~NiSi and Ce~4.5~Ni~1.2~Si~4.3~ compounds - new members of structural class with trigonal-prismatic coordination
;
_journal_coden_ASTM                      BKKIS1
_journal_name_full
'Tezizy Dokl. Vses. Konf. Kristallokhim. Intermet. Soeden., 1st'              
_journal_year                            1971
_journal_volume                          ?
_journal_page_first                      12
_journal_page_last                       ?
_journal_language                        Russian
loop_
 _publ_author_name
 _publ_author_address
'Mys'kiv M.G.'
;
Lviv Ivan Franko State University
Department of Inorganic Chemistry
Lviv
Ukraine
;
'Gladyshevskii E.I.'
;
Lviv Ivan Franko State University
Department of Inorganic Chemistry
Lviv
Ukraine
;
'Bodak O.I.'
;
Lviv Ivan Franko State University
Department of Inorganic Chemistry
Lviv
Ukraine
;

# Standardized crystallographic data

_cell_length_a                           16.05
_cell_length_b                           16.05
_cell_length_c                           4.302
_cell_angle_alpha                        90
_cell_angle_beta                         90
_cell_angle_gamma                        120
_cell_volume                             959.7
_cell_formula_units_Z                    4
_space_group_IT_number                   176
_space_group_name_H-M_alt                'P 63/m'
loop_
 _space_group_symop_id
 _space_group_symop_operation_xyz
 1 'x, y, z'
 2 '-x+y, -x, 1/2-z'
 3 '-x+y, -x, z'
 4 '-x, -y, -z'
 5 '-x, -y, 1/2+z'
 6 '-y, x-y, 1/2-z'
 7 '-y, x-y, z'
 8 'x, y, 1/2-z'
 9 'x-y, x, -z'
 10 'x-y, x, 1/2+z'
 11 'y, -x+y, -z'
 12 'y, -x+y, 1/2+z'

# Atomic positions taken from type-defining entry

loop_
 _atom_type_symbol
 Pr
 Si
 Ni
loop_
 _atom_site_label
 _atom_site_type_symbol
 _atom_site_symmetry_multiplicity
 _atom_site_Wyckoff_symbol
 _atom_site_fract_x
 _atom_site_fract_y
 _atom_site_fract_z
 _atom_site_occupancy
 Pr1 Pr 6 h 0.0117 0.1795 0.25 1
 Si1 Si 6 h 0.1672 0.5472 0.25 1
 Ni1A Ni 6 h 0.2416 0.3333 0.25 0.500
 Si1B Si 6 h 0.2416 0.3333 0.25 0.500
 Ni2A Ni 6 h 0.2834 0.5021 0.25 0.500
 Si2B Si 6 h 0.2834 0.5021 0.25 0.500
 Pr2 Pr 6 h 0.3978 0.2618 0.25 1
 Pr3 Pr 6 h 0.4542 0.0671 0.25 1
 Pr4 Pr 2 d 0.666667 0.333333 0.25 1
 Ni1 Ni 2 b 0 0 0 1


_exptl_crystal_colour                    ?
_exptl_crystal_density_meas              ?
_exptl_crystal_density_diffrn            6.38
_cell_measurement_temperature            ?
_cell_measurement_radiation              ?
_cell_measurement_reflns_used            ?
_diffrn_ambient_temperature              ?
_diffrn_measurement_device               ?
_diffrn_measurement_device_type          ?
_diffrn_radiation_type                   ?
_diffrn_reflns_number                    ?
_exptl_absorpt_coefficient_mu            ?
_exptl_absorpt_correction_type           ?
_computing_structure_solution            ?
_refine_ls_number_parameters             ?
_refine_ls_number_reflns                 ?
_refine_ls_R_factor_gt                   ?
_refine_ls_wR_factor_gt                  ?

# End of data set 1008392

