##############################################################################
#                                                                            #
# Ge-Ho-Ir         # Ho3Ir2Ge3                                     # 1008422 #
#                                                                            #
##############################################################################
#                                                                            #
#                           Pearson's Crystal Data                           #
#      Crystal Structure Database for Inorganic Compounds (on DVD)           #
#                              Release 2023/24                               #
#                  Editors: Pierre Villars and Karin Cenzual                 #
#                                                                            #
#   Copyright (c) ASM International & Material Phases Data System (MPDS),    #
# Switzerland & National Institute for Materials Science (NIMS), Japan, 2023 #
#                   All rights reserved. Version 2023.07                     #
#                                                                            #
#   This copy of Pearson's Crystal Data is licensed to:                      #
#   Hunter College - City University of New York                             #
#                                                                            #
##############################################################################

data_1008422
_audit_creation_date                     2024-02-24
_audit_creation_method
;
Pearson's Crystal Data browser
;
#_database_code_PCD                      1008422
_database_code_PDF                       ?

# Entry summary

_chemical_formula_structural             'Ho~3~ Ir~2~ Ge~3~'
_chemical_formula_sum                    'Ge3 Ho3 Ir2'
_chemical_name_mineral                   ?
_chemical_compound_source                ?
_chemical_name_structure_type            Hf~3~Ni~2~Si~3~,oS32,63
_chemical_formula_weight                 1097.0

# Bibliographic data

_publ_section_title
;
Ho~3~Ir~2~Ge~2~: Member of the structural series with formula R~n+2~M~2~Si~n+2~
;
_journal_coden_ASTM                      ICCIC6
_journal_name_full
'Abstr. 6th Int. Conf. Crystal Chem. Intermet. Compd.'                        
_journal_year                            1995
_journal_volume                          ?
_journal_page_first                      96
_journal_page_last                       ?
_journal_language                        English
loop_
 _publ_author_name
 _publ_author_address
'Sologub O.L.'
;
Lviv Ivan Franko State University
Department of Inorganic Chemistry
Lviv
Ukraine
;
'Stash A.I.'
;
Russian Academy of Sciences (RAS)
Karpov Institute of Physical Chemistry
Moscow
Russia
;
'Zavodnik V.E.'
;
Karpov Institute of Physical Chemistry
Moscow
Russia
;
'Salamakha P.S.'
;
Lviv Ivan Franko State University
Department of Inorganic Chemistry
Lviv
Ukraine
;
'Bodak O.I.'
;
Lviv Ivan Franko State University
Department of Inorganic Chemistry
Lviv
Ukraine
;

# Standardized crystallographic data

_cell_length_a                           4.273
_cell_length_b                           10.403
_cell_length_c                           14.128
_cell_angle_alpha                        90
_cell_angle_beta                         90
_cell_angle_gamma                        90
_cell_volume                             628
_cell_formula_units_Z                    4
_space_group_IT_number                   63
_space_group_name_H-M_alt                'C m c m'
loop_
 _space_group_symop_id
 _space_group_symop_operation_xyz
 1 'x, y, z'
 2 '-x, -y, -z'
 3 '-x, -y, 1/2+z'
 4 '-x, y, 1/2-z'
 5 '-x, y, z'
 6 'x, -y, -z'
 7 'x, -y, 1/2+z'
 8 'x, y, 1/2-z'
 9 '1/2+x, 1/2+y, z'
 10 '1/2-x, 1/2-y, -z'
 11 '1/2-x, 1/2-y, 1/2+z'
 12 '1/2-x, 1/2+y, 1/2-z'
 13 '1/2-x, 1/2+y, z'
 14 '1/2+x, 1/2-y, -z'
 15 '1/2+x, 1/2-y, 1/2+z'
 16 '1/2+x, 1/2+y, 1/2-z'
loop_
 _atom_type_symbol
 Ho
 Ir
 Ge
loop_
 _atom_site_label
 _atom_site_type_symbol
 _atom_site_symmetry_multiplicity
 _atom_site_Wyckoff_symbol
 _atom_site_fract_x
 _atom_site_fract_y
 _atom_site_fract_z
 _atom_site_occupancy
 Ho2 Ho 8 f 0 0.0839 0.1107 1
 Ir Ir 8 f 0 0.2016 0.6008 1
 Ge1 Ge 8 f 0 0.3776 0.0357 1
 Ho1 Ho 4 c 0 0.3593 0.25 1
 Ge2 Ge 4 c 0 0.6569 0.25 1


_exptl_crystal_colour                    ?
_exptl_crystal_density_meas              ?
_exptl_crystal_density_diffrn            11.60
_cell_measurement_temperature            ?
_cell_measurement_radiation              X-rays
_cell_measurement_reflns_used            ?
_diffrn_ambient_temperature              ?
_diffrn_measurement_device               'automatic diffractometer'
_diffrn_measurement_device_type          'Syntex P1'
_diffrn_radiation_type                   X-rays
_diffrn_reflns_number                    ?
_exptl_absorpt_coefficient_mu            ?
_exptl_absorpt_correction_type           ?
_computing_structure_solution            'starting values from the literature'
_refine_ls_number_parameters             ?
_refine_ls_number_reflns                 448
_refine_ls_R_factor_gt                   0.0321
_refine_ls_wR_factor_gt                  ?

# End of data set 1008422

