##############################################################################
#                                                                            #
# Ru-Si-Sm         # Sm2Ru3Si5                                     # 1008175 #
#                                                                            #
##############################################################################
#                                                                            #
#                           Pearson's Crystal Data                           #
#      Crystal Structure Database for Inorganic Compounds (on DVD)           #
#                              Release 2023/24                               #
#                  Editors: Pierre Villars and Karin Cenzual                 #
#                                                                            #
#   Copyright (c) ASM International & Material Phases Data System (MPDS),    #
# Switzerland & National Institute for Materials Science (NIMS), Japan, 2023 #
#                   All rights reserved. Version 2023.07                     #
#                                                                            #
#   This copy of Pearson's Crystal Data is licensed to:                      #
#   Hunter College - City University of New York                             #
#                                                                            #
##############################################################################

data_1008175
_audit_creation_date                     2024-02-25
_audit_creation_method
;
Pearson's Crystal Data browser
;
#_database_code_PCD                      1008175
_database_code_PDF                       ?

# Entry summary

_chemical_formula_structural             'Sm~2~ Ru~3~ Si~5~'
_chemical_formula_sum                    'Ru3 Si5 Sm2'
_chemical_name_mineral                   ?
_chemical_compound_source                ?
_chemical_name_structure_type            U~2~Mn~3~Si~5~,tP40,128
_chemical_formula_weight                 744.4

# Bibliographic data

_publ_section_title
'Phase equilibria in the Sm-(Ru,Rh)-(Si,Ge) systems at 870 K'                 
_journal_coden_ASTM                      JALCEU
_journal_name_full                       'J. Alloys Compd.'
_journal_year                            1996
_journal_volume                          234
_journal_page_first                      143
_journal_page_last                       150
_journal_language                        English
loop_
 _publ_author_name
 _publ_author_address
'Morozkin A.V.'
;
Moscow M.V. Lomonosov State University (MSU)
Department of Chemistry
Moscow
Russia
;
'Seropegin Y.D.'
;
Moscow M.V. Lomonosov State University (MSU)
Department of Chemistry
Moscow
Russia
;
'Bodak O.I.'
;
Lviv Ivan Franko State University
Department of Inorganic Chemistry
Lviv
Ukraine
;

# Standardized crystallographic data

_cell_length_a                           10.711
_cell_length_b                           10.711
_cell_length_c                           5.676
_cell_angle_alpha                        90
_cell_angle_beta                         90
_cell_angle_gamma                        90
_cell_volume                             651.2
_cell_formula_units_Z                    4
_space_group_IT_number                   128
_space_group_name_H-M_alt                'P 4/m n c'
loop_
 _space_group_symop_id
 _space_group_symop_operation_xyz
 1 'x, y, z'
 2 '1/2-x, 1/2+y, 1/2-z'
 3 '1/2-x, 1/2+y, 1/2+z'
 4 '-x, -y, -z'
 5 '-x, -y, z'
 6 '1/2-y, 1/2-x, 1/2-z'
 7 '1/2-y, 1/2-x, 1/2+z'
 8 '-y, x, -z'
 9 '-y, x, z'
 10 '1/2+x, 1/2-y, 1/2-z'
 11 '1/2+x, 1/2-y, 1/2+z'
 12 'x, y, -z'
 13 '1/2+y, 1/2+x, 1/2-z'
 14 '1/2+y, 1/2+x, 1/2+z'
 15 'y, -x, -z'
 16 'y, -x, z'

# Atomic positions taken from type-defining entry

loop_
 _atom_type_symbol
 Si
 Ru
 Sm
loop_
 _atom_site_label
 _atom_site_type_symbol
 _atom_site_symmetry_multiplicity
 _atom_site_Wyckoff_symbol
 _atom_site_fract_x
 _atom_site_fract_y
 _atom_site_fract_z
 _atom_site_occupancy
 Si1 Si 8 h 0.0148 0.3091 0 1
 Ru1 Ru 8 h 0.1599 0.1221 0 1
 Sm1 Sm 8 h 0.2606 0.4296 0 1
 Si2 Si 8 g 0.1839 0.6839 0.25 1
 Si3 Si 4 e 0 0 0.257 1
 Ru2 Ru 4 d 0 0.5 0.25 1


_exptl_crystal_colour                    ?
_exptl_crystal_density_meas              ?
_exptl_crystal_density_diffrn            7.59
_cell_measurement_temperature            ?
_cell_measurement_radiation              'X-rays, Cu Ka'
_cell_measurement_reflns_used            ?
_diffrn_ambient_temperature              ?
_diffrn_measurement_device               'automatic diffractometer'
_diffrn_measurement_device_type          ?
_diffrn_radiation_type                   ?
_diffrn_reflns_number                    ?
_exptl_absorpt_coefficient_mu            ?
_exptl_absorpt_correction_type           ?
_computing_structure_solution            ?
_refine_ls_number_parameters             ?
_refine_ls_number_reflns                 ?
_refine_ls_R_factor_gt                   ?
_refine_ls_wR_factor_gt                  ?

# End of data set 1008175

