##############################################################################
#                                                                            #
# Co-La-Si         # La15Co4Si13                                   # 1008866 #
#                                                                            #
##############################################################################
#                                                                            #
#                           Pearson's Crystal Data                           #
#      Crystal Structure Database for Inorganic Compounds (on DVD)           #
#                              Release 2023/24                               #
#                  Editors: Pierre Villars and Karin Cenzual                 #
#                                                                            #
#   Copyright (c) ASM International & Material Phases Data System (MPDS),    #
# Switzerland & National Institute for Materials Science (NIMS), Japan, 2023 #
#                   All rights reserved. Version 2023.07                     #
#                                                                            #
#   This copy of Pearson's Crystal Data is licensed to:                      #
#   Hunter College - City University of New York                             #
#                                                                            #
##############################################################################

data_1008866
_audit_creation_date                     2024-02-24
_audit_creation_method
;
Pearson's Crystal Data browser
;
#_database_code_PCD                      1008866
_database_code_PDF                       04-021-9288

# Entry summary

_chemical_formula_structural             'La~15~ Co~4~ Si~13~'
_chemical_formula_sum                    'Co4 La15 Si13'
_chemical_name_mineral                   ?
_chemical_compound_source                ?
_chemical_name_structure_type
Ce~15~Ni(Ni~0.5~Si~0.5~)~6~Si~10~,hP64,176                                    
_chemical_formula_weight                 2684.4

# Bibliographic data

_publ_section_title
'Some ternary systems with rare-earth metals'                                 
_journal_coden_ASTM                      47SFA4
_journal_name_full                       'Fazovye Ravnovesiya Met. Splavakh'
_journal_year                            1981
_journal_volume                          ?
_journal_page_first                      57
_journal_page_last                       63
_journal_language                        Russian
loop_
 _publ_author_name
 _publ_author_address
'Bodak O.I.'
;
Lviv Ivan Franko State University
Department of Inorganic Chemistry
Lviv
Ukraine
;
'Pecharskii V.K.'
;
Lviv Ivan Franko State University
Lviv
Ukraine
;
'Kalychak Y.M.'
;
Lviv Ivan Franko State University
Lviv
Ukraine
;
'Kharchenko O.I.'
;
Russian Academy of Sciences (RAS)
Baikov A.A. Institute of Metallurgy
Moscow
Russia
;
'Mokra I.R.'
;
Lviv Ivan Franko State University
Department of Inorganic Chemistry
Lviv
Ukraine
;
'Muratova L.O.'
;
Lviv State Medical Institute
Lviv
Ukraine
;
'Beryezyuk D.A.'
'Shyevchuk M.M.'

# Standardized crystallographic data

_cell_length_a                           20.46
_cell_length_b                           20.46
_cell_length_c                           4.44
_cell_angle_alpha                        90
_cell_angle_beta                         90
_cell_angle_gamma                        120
_cell_volume                             1609.6
_cell_formula_units_Z                    2
_space_group_IT_number                   176
_space_group_name_H-M_alt                'P 63/m'
loop_
 _space_group_symop_id
 _space_group_symop_operation_xyz
 1 'x, y, z'
 2 '-x+y, -x, 1/2-z'
 3 '-x+y, -x, z'
 4 '-x, -y, -z'
 5 '-x, -y, 1/2+z'
 6 '-y, x-y, 1/2-z'
 7 '-y, x-y, z'
 8 'x, y, 1/2-z'
 9 'x-y, x, -z'
 10 'x-y, x, 1/2+z'
 11 'y, -x+y, -z'
 12 'y, -x+y, 1/2+z'

# Atomic positions taken from type-defining entry

loop_
 _atom_type_symbol
 Si
 Co
 La
loop_
 _atom_site_label
 _atom_site_type_symbol
 _atom_site_symmetry_multiplicity
 _atom_site_Wyckoff_symbol
 _atom_site_fract_x
 _atom_site_fract_y
 _atom_site_fract_z
 _atom_site_occupancy
 Si1 Si 6 h 0.079 0.285 0.25 1
 Co1A Co 6 h 0.103 0.477 0.25 0.500
 Si1B Si 6 h 0.103 0.477 0.25 0.500
 La1 La 6 h 0.143 0.144 0.25 1
 Co2A Co 6 h 0.172 0.417 0.25 0.500
 Si2B Si 6 h 0.172 0.417 0.25 0.500
 Si2 Si 6 h 0.203 0.611 0.25 1
 Si3 Si 6 h 0.302 0.442 0.25 1
 La2 La 6 h 0.317 0.112 0.25 1
 La3 La 6 h 0.355 0.325 0.25 1
 La4 La 6 h 0.496 0.074 0.25 1
 La5 La 6 h 0.537 0.29 0.25 1
 Si4 Si 2 c 0.333333 0.666667 0.25 1
 Co1 Co 2 b 0 0 0 1


_exptl_crystal_colour                    ?
_exptl_crystal_density_meas              ?
_exptl_crystal_density_diffrn            5.54
_cell_measurement_temperature            ?
_cell_measurement_radiation              ?
_cell_measurement_reflns_used            ?
_diffrn_ambient_temperature              ?
_diffrn_measurement_device               ?
_diffrn_measurement_device_type          ?
_diffrn_radiation_type                   ?
_diffrn_reflns_number                    ?
_exptl_absorpt_coefficient_mu            ?
_exptl_absorpt_correction_type           ?
_computing_structure_solution            ?
_refine_ls_number_parameters             ?
_refine_ls_number_reflns                 ?
_refine_ls_R_factor_gt                   ?
_refine_ls_wR_factor_gt                  ?

# End of data set 1008866

