##############################################################################
#                                                                            #
# Nd-Ru-Si         # Nd5Ru0.75Si2.25                               # 1008487 #
#                                                                            #
##############################################################################
#                                                                            #
#                           Pearson's Crystal Data                           #
#      Crystal Structure Database for Inorganic Compounds (on DVD)           #
#                              Release 2023/24                               #
#                  Editors: Pierre Villars and Karin Cenzual                 #
#                                                                            #
#   Copyright (c) ASM International & Material Phases Data System (MPDS),    #
# Switzerland & National Institute for Materials Science (NIMS), Japan, 2023 #
#                   All rights reserved. Version 2023.07                     #
#                                                                            #
#   This copy of Pearson's Crystal Data is licensed to:                      #
#   Hunter College - City University of New York                             #
#                                                                            #
##############################################################################

data_1008487
_audit_creation_date                     2024-02-25
_audit_creation_method
;
Pearson's Crystal Data browser
;
#_database_code_PCD                      1008487
_database_code_PDF                       04-019-8360

# Entry summary

_chemical_formula_structural             'Nd~5~ Ru~0.75~ Si~2.25~'
_chemical_formula_sum                    'Nd5 Ru0.75 Si2.25'
_chemical_name_mineral                   ?
_chemical_compound_source                ?
_chemical_name_structure_type            Cr~5~B~3~,tI32,140
_chemical_formula_weight                 860.2

# Bibliographic data

_publ_section_title
'Crystal structure of the Nd~5~Ru~0.75~Si~2.25~ compound'                     
_journal_coden_ASTM                      JALCEU
_journal_name_full                       'J. Alloys Compd.'
_journal_year                            1996
_journal_volume                          242
_journal_page_first                      L3
_journal_page_last                       L4
_journal_language                        English
loop_
 _publ_author_name
 _publ_author_address
'Salamakha P.S.'
;
Lviv Ivan Franko State University
Department of Inorganic Chemistry
Lviv
Ukraine
;
'Stepien Damm J.'
;
Polish Academy of Sciences (PAN)
Trzebiatowski W. Institute of Low Temperature and Structure Research
Warsaw
Poland
;
'Prots Y.M.'
;
Lviv Ivan Franko State University
Department of Inorganic Chemistry
Lviv
Ukraine
;
'Bodak O.I.'
;
Lviv Ivan Franko State University
Department of Inorganic Chemistry
Lviv
Ukraine
;

# Standardized crystallographic data

_cell_length_a                           7.74
_cell_length_b                           7.74
_cell_length_c                           13.61
_cell_angle_alpha                        90
_cell_angle_beta                         90
_cell_angle_gamma                        90
_cell_volume                             815.34
_cell_formula_units_Z                    4
_space_group_IT_number                   140
_space_group_name_H-M_alt                'I 4/m c m'
loop_
 _space_group_symop_id
 _space_group_symop_operation_xyz
 1 'x, y, z'
 2 '-x, -y, -z'
 3 '-x, -y, z'
 4 '-x, y, 1/2-z'
 5 '-x, y, 1/2+z'
 6 '-y, -x, 1/2-z'
 7 '-y, -x, 1/2+z'
 8 '-y, x, -z'
 9 '-y, x, z'
 10 'x, -y, 1/2-z'
 11 'x, -y, 1/2+z'
 12 'x, y, -z'
 13 'y, -x, -z'
 14 'y, -x, z'
 15 'y, x, 1/2-z'
 16 'y, x, 1/2+z'
 17 '1/2+x, 1/2+y, 1/2+z'
 18 '1/2-x, 1/2-y, 1/2-z'
 19 '1/2-x, 1/2-y, 1/2+z'
 20 '1/2-x, 1/2+y, 1-z'
 21 '1/2-x, 1/2+y, 1+z'
 22 '1/2-y, 1/2-x, 1-z'
 23 '1/2-y, 1/2-x, 1+z'
 24 '1/2-y, 1/2+x, 1/2-z'
 25 '1/2-y, 1/2+x, 1/2+z'
 26 '1/2+x, 1/2-y, 1-z'
 27 '1/2+x, 1/2-y, 1+z'
 28 '1/2+x, 1/2+y, 1/2-z'
 29 '1/2+y, 1/2-x, 1/2-z'
 30 '1/2+y, 1/2-x, 1/2+z'
 31 '1/2+y, 1/2+x, 1-z'
 32 '1/2+y, 1/2+x, 1+z'
loop_
 _atom_type_symbol
 Nd
 Si
 Ru
loop_
 _atom_site_label
 _atom_site_type_symbol
 _atom_site_symmetry_multiplicity
 _atom_site_Wyckoff_symbol
 _atom_site_fract_x
 _atom_site_fract_y
 _atom_site_fract_z
 _atom_site_occupancy
 Nd1 Nd 16 l 0.1695 0.6695 0.1448 1
 Si1A Si 8 h 0.6185 0.1185 0 0.75
 Ru1B Ru 8 h 0.6185 0.1185 0 0.25
 Nd2 Nd 4 c 0 0 0 1
 Si2A Si 4 a 0 0 0.25 0.75
 Ru2B Ru 4 a 0 0 0.25 0.25


_exptl_crystal_colour                    ?
_exptl_crystal_density_meas              ?
_exptl_crystal_density_diffrn            7.01
_cell_measurement_temperature            298
_cell_measurement_radiation              'X-rays, Mo Ka'
_cell_measurement_wavelength             0.71073
_cell_measurement_reflns_used            ?
_diffrn_ambient_temperature              298
_diffrn_measurement_device               'automatic diffractometer'
_diffrn_measurement_device_type          'Kuma Diffraction KM-4'
_diffrn_radiation_type                   'X-rays, Mo Ka'
_diffrn_radiation_wavelength             0.71073
_diffrn_reflns_number                    1193
_diffrn_reflns_theta_min                 2
_diffrn_reflns_theta_max                 35
_exptl_absorpt_coefficient_mu            32.998
_exptl_absorpt_correction_type           ?
_computing_structure_solution            'direct methods, Fourier synthesis'
_refine_ls_number_parameters             18
_refine_ls_number_reflns                 260
_refine_ls_R_factor_gt                   0.0450
_refine_ls_wR_factor_gt                  0.0351

# End of data set 1008487

