##############################################################################
#                                                                            #
# Ge-Pd-Sm         # SmPdGe2                                       # 1008159 #
#                                                                            #
##############################################################################
#                                                                            #
#                           Pearson's Crystal Data                           #
#      Crystal Structure Database for Inorganic Compounds (on DVD)           #
#                              Release 2023/24                               #
#                  Editors: Pierre Villars and Karin Cenzual                 #
#                                                                            #
#   Copyright (c) ASM International & Material Phases Data System (MPDS),    #
# Switzerland & National Institute for Materials Science (NIMS), Japan, 2023 #
#                   All rights reserved. Version 2023.07                     #
#                                                                            #
#   This copy of Pearson's Crystal Data is licensed to:                      #
#   Hunter College - City University of New York                             #
#                                                                            #
##############################################################################

data_1008159
_audit_creation_date                     2024-02-25
_audit_creation_method
;
Pearson's Crystal Data browser
;
#_database_code_PCD                      1008159
_database_code_PDF                       ?

# Entry summary

_chemical_formula_structural             'Sm Pd Ge~2~'
_chemical_formula_sum                    'Ge2 Pd Sm'
_chemical_name_mineral                   ?
_chemical_compound_source                ?
_chemical_name_structure_type            YIrGe~2~,oI32,71
_chemical_formula_weight                 402.0

# Bibliographic data

_publ_section_title
'Study of the interaction of components in the Sm-Pd-Ge system'               
_journal_coden_ASTM                      RMLYAQ
_journal_name_full                       'Russ. Metall.'
_journal_year                            1995
_journal_volume                          ?
_journal_issue                           1
_journal_page_first                      150
_journal_page_last                       154
_journal_language                        English
loop_
 _publ_author_name
 _publ_author_address
'Barakatova Z.M.'
;
Moscow M.V. Lomonosov State University (MSU)
Moscow
Russia
;
'Seropegin Y.D.'
;
Moscow M.V. Lomonosov State University (MSU)
Department of Chemistry
Moscow
Russia
;
'Bodak O.I.'
;
Lviv Ivan Franko State University
Department of Inorganic Chemistry
Lviv
Ukraine
;
'Belan B.D.'
;
Lviv Ivan Franko State University
Department of Inorganic Chemistry
Lviv
Ukraine
;

# Standardized crystallographic data

_cell_length_a                           4.345
_cell_length_b                           8.762
_cell_length_c                           16.358
_cell_angle_alpha                        90
_cell_angle_beta                         90
_cell_angle_gamma                        90
_cell_volume                             622.8
_cell_formula_units_Z                    8
_space_group_IT_number                   71
_space_group_name_H-M_alt                'I m m m'
loop_
 _space_group_symop_id
 _space_group_symop_operation_xyz
 1 'x, y, z'
 2 '-x, -y, -z'
 3 '-x, -y, z'
 4 '-x, y, -z'
 5 '-x, y, z'
 6 'x, -y, -z'
 7 'x, -y, z'
 8 'x, y, -z'
 9 '1/2+x, 1/2+y, 1/2+z'
 10 '1/2-x, 1/2-y, 1/2-z'
 11 '1/2-x, 1/2-y, 1/2+z'
 12 '1/2-x, 1/2+y, 1/2-z'
 13 '1/2-x, 1/2+y, 1/2+z'
 14 '1/2+x, 1/2-y, 1/2-z'
 15 '1/2+x, 1/2-y, 1/2+z'
 16 '1/2+x, 1/2+y, 1/2-z'

# Atomic positions taken from type-defining entry

loop_
 _atom_type_symbol
 Pd
 Ge
 Sm
loop_
 _atom_site_label
 _atom_site_type_symbol
 _atom_site_symmetry_multiplicity
 _atom_site_Wyckoff_symbol
 _atom_site_fract_x
 _atom_site_fract_y
 _atom_site_fract_z
 _atom_site_occupancy
 Pd1 Pd 8 l 0 0.2494 0.3541 1
 Ge1 Ge 8 l 0 0.3474 0.2002 1
 Ge2 Ge 4 j 0.5 0 0.077 1
 Sm1 Sm 4 i 0 0 0.2057 1
 Ge3 Ge 4 i 0 0 0.4215 1
 Sm2 Sm 4 g 0 0.2393 0 1


_exptl_crystal_colour                    ?
_exptl_crystal_density_meas              ?
_exptl_crystal_density_diffrn            8.58
_cell_measurement_temperature            ?
_cell_measurement_radiation              X-rays
_cell_measurement_reflns_used            ?
_diffrn_ambient_temperature              ?
_diffrn_measurement_device               'automatic diffractometer'
_diffrn_measurement_device_type          ?
_diffrn_radiation_type                   ?
_diffrn_reflns_number                    ?
_exptl_absorpt_coefficient_mu            ?
_exptl_absorpt_correction_type           ?
_computing_structure_solution            ?
_refine_ls_number_parameters             ?
_refine_ls_number_reflns                 ?
_refine_ls_R_factor_gt                   ?
_refine_ls_wR_factor_gt                  ?

# End of data set 1008159

