##############################################################################
#                                                                            #
# Fe-Si-Tb         # Tb2Fe14Si3                                    # 1010730 #
#                                                                            #
##############################################################################
#                                                                            #
#                           Pearson's Crystal Data                           #
#      Crystal Structure Database for Inorganic Compounds (on DVD)           #
#                              Release 2023/24                               #
#                  Editors: Pierre Villars and Karin Cenzual                 #
#                                                                            #
#   Copyright (c) ASM International & Material Phases Data System (MPDS),    #
# Switzerland & National Institute for Materials Science (NIMS), Japan, 2023 #
#                   All rights reserved. Version 2023.07                     #
#                                                                            #
#   This copy of Pearson's Crystal Data is licensed to:                      #
#   Hunter College - City University of New York                             #
#                                                                            #
##############################################################################

data_1010730
_audit_creation_date                     2024-02-24
_audit_creation_method
;
Pearson's Crystal Data browser
;
#_database_code_PCD                      1010730
_database_code_PDF                       04-016-7310

# Entry summary

_chemical_formula_structural             'Tb~2~ Fe~14.45~ Si~2.55~'
_chemical_formula_sum                    'Fe14.45 Si2.55 Tb2'
_chemical_name_mineral                   ?
_chemical_compound_source                ?
_chemical_name_structure_type            Zn~17~Th~2~,hR57,166
_chemical_formula_weight                 1196.5

# Bibliographic data

_publ_section_title
'Crystal structures and magnetic properties of R~13~Fe~74~Si~13~ Alloys'      
_journal_coden_ASTM                      WLHPAR
_journal_name_full                       'Wuli Xuebao'
_journal_year                            1987
_journal_volume                          36
_journal_page_first                      1177
_journal_page_last                       1181
_journal_language                        Chinese
loop_
 _publ_author_name
 _publ_author_address
'Hu B.P.'
;
Chinese Academy of Sciences
Institute of Physics
Beijing
China
;
'Zhang S.G.'
;
Chinese Academy of Sciences
Institute of Physics
Beijing
China
;

# Standardized crystallographic data

_cell_length_a                           8.49
_cell_length_b                           8.49
_cell_length_c                           12.39
_cell_angle_alpha                        90
_cell_angle_beta                         90
_cell_angle_gamma                        120
_cell_volume                             773.4
_cell_formula_units_Z                    3
_space_group_IT_number                   166
_space_group_name_H-M_alt                'R -3 m h'
loop_
 _space_group_symop_id
 _space_group_symop_operation_xyz
 1 'x, y, z'
 2 '-x+y, -x, z'
 3 '-x+y, y, z'
 4 '-x, -x+y, -z'
 5 '-x, -y, -z'
 6 '-y, -x, z'
 7 '-y, x-y, z'
 8 'x, x-y, z'
 9 'x-y, -y, -z'
 10 'x-y, x, -z'
 11 'y, -x+y, -z'
 12 'y, x, -z'
 13 '2/3+x, 1/3+y, 1/3+z'
 14 '2/3-x+y, 1/3-x, 1/3+z'
 15 '2/3-x+y, 1/3+y, 1/3+z'
 16 '2/3-x, 1/3-x+y, 1/3-z'
 17 '2/3-x, 1/3-y, 1/3-z'
 18 '2/3-y, 1/3-x, 1/3+z'
 19 '2/3-y, 1/3+x-y, 1/3+z'
 20 '2/3+x, 1/3+x-y, 1/3+z'
 21 '2/3+x-y, 1/3-y, 1/3-z'
 22 '2/3+x-y, 1/3+x, 1/3-z'
 23 '2/3+y, 1/3-x+y, 1/3-z'
 24 '2/3+y, 1/3+x, 1/3-z'
 25 '1/3+x, 2/3+y, 2/3+z'
 26 '1/3-x+y, 2/3-x, 2/3+z'
 27 '1/3-x+y, 2/3+y, 2/3+z'
 28 '1/3-x, 2/3-x+y, 2/3-z'
 29 '1/3-x, 2/3-y, 2/3-z'
 30 '1/3-y, 2/3-x, 2/3+z'
 31 '1/3-y, 2/3+x-y, 2/3+z'
 32 '1/3+x, 2/3+x-y, 2/3+z'
 33 '1/3+x-y, 2/3-y, 2/3-z'
 34 '1/3+x-y, 2/3+x, 2/3-z'
 35 '1/3+y, 2/3-x+y, 2/3-z'
 36 '1/3+y, 2/3+x, 2/3-z'

# Atomic positions taken from type-defining entry

loop_
 _atom_type_symbol
 Fe
 Si
 Tb
loop_
 _atom_site_label
 _atom_site_type_symbol
 _atom_site_symmetry_multiplicity
 _atom_site_Wyckoff_symbol
 _atom_site_fract_x
 _atom_site_fract_y
 _atom_site_fract_z
 _atom_site_occupancy
 Fe1A Fe 18 h 0.5 0.5 0.16667 0.850
 Si1B Si 18 h 0.5 0.5 0.16667 0.150
 Fe2A Fe 18 f 0.33333 0 0 0.850
 Si2B Si 18 f 0.33333 0 0 0.150
 Fe3A Fe 9 d 0.5 0 0.5 0.850
 Si3B Si 9 d 0.5 0 0.5 0.150
 Fe4A Fe 6 c 0 0 0.097 0.850
 Si4B Si 6 c 0 0 0.097 0.150
 Tb1 Tb 6 c 0 0 0.33333 1


_exptl_crystal_colour                    ?
_exptl_crystal_density_meas              ?
_exptl_crystal_density_diffrn            7.71
_cell_measurement_temperature            ?
_cell_measurement_radiation              ?
_cell_measurement_reflns_used            ?
_diffrn_ambient_temperature              ?
_diffrn_measurement_device               ?
_diffrn_measurement_device_type          ?
_diffrn_radiation_type                   ?
_diffrn_reflns_number                    ?
_exptl_absorpt_coefficient_mu            ?
_exptl_absorpt_correction_type           ?
_computing_structure_solution            ?
_refine_ls_number_parameters             ?
_refine_ls_number_reflns                 ?
_refine_ls_R_factor_gt                   ?
_refine_ls_wR_factor_gt                  ?

# End of data set 1010730

