##############################################################################
#                                                                            #
# Fe-Ga-Yb         # Yb1.84Fe16.42Ga0.4                            # 1010978 #
#                                                                            #
##############################################################################
#                                                                            #
#                           Pearson's Crystal Data                           #
#      Crystal Structure Database for Inorganic Compounds (on DVD)           #
#                              Release 2023/24                               #
#                  Editors: Pierre Villars and Karin Cenzual                 #
#                                                                            #
#   Copyright (c) ASM International & Material Phases Data System (MPDS),    #
# Switzerland & National Institute for Materials Science (NIMS), Japan, 2023 #
#                   All rights reserved. Version 2023.07                     #
#                                                                            #
#   This copy of Pearson's Crystal Data is licensed to:                      #
#   Hunter College - City University of New York                             #
#                                                                            #
##############################################################################

data_1010978
_audit_creation_date                     2024-02-24
_audit_creation_method
;
Pearson's Crystal Data browser
;
#_database_code_PCD                      1010978
_database_code_PDF                       04-018-8005

# Entry summary

_chemical_formula_structural             'Yb~1.84~ Fe~16.42~ Ga~0.4~'
_chemical_formula_sum                    'Fe16.81 Ga0.41 Yb1.89'
_chemical_name_mineral                   ?
_chemical_compound_source                ?
_chemical_name_structure_type            Yb~1.84~Fe~16.42~Ga~0.4~,hR132,166
_chemical_formula_weight                 1263.3

# Bibliographic data

_publ_section_title
;
Chemical Heterogeneity of a Crystal Built of Nanoscale Coherently Twinned Yb~2-x~(Fe,Ga)~17+2x~ Polytypes
;
_journal_coden_ASTM                      CEUJED
_journal_name_full                       'Chem. Eur. J.'
_journal_year                            2004
_journal_volume                          10
_journal_page_first                      2972
_journal_page_last                       2976
_journal_language                        English
loop_
 _publ_author_name
 _publ_author_address
'Filinchuk Y.E.'
;
Geneva University (UNIGE)
Laboratoire de Cristallographie
Geneva
Switzerland
;
'Birkedal H.'
;
Lausanne University (UNIL)
Institut de Cristallographie
Lausanne
Switzerland
;
'Cerny R.'
;
Geneva University (UNIGE)
Laboratoire de Cristallographie
Geneva
Switzerland
;
'Hostettler M.'
;
Lausanne University (UNIL)
Institut de Cristallographie
Lausanne
Switzerland
;
'Yanson T.I.'
;
Lviv Ivan Franko National University
Department of Inorganic Chemistry
Lviv
Ukraine
;
'Bodak O.I.'
;
Lviv Ivan Franko National University
Department of Inorganic Chemistry
Lviv
Ukraine
;
'Yvon K.'
;
Geneva University (UNIGE)
Laboratoire de Cristallographie
Geneva
Switzerland
;

# Standardized crystallographic data

_cell_length_a                           8.5965
_cell_length_b                           8.5965
_cell_length_c                           12.5806
_cell_angle_alpha                        90
_cell_angle_beta                         90
_cell_angle_gamma                        120
_cell_volume                             805.1
_cell_formula_units_Z                    3
_space_group_IT_number                   166
_space_group_name_H-M_alt                'R -3 m h'
loop_
 _space_group_symop_id
 _space_group_symop_operation_xyz
 1 'x, y, z'
 2 '-x+y, -x, z'
 3 '-x+y, y, z'
 4 '-x, -x+y, -z'
 5 '-x, -y, -z'
 6 '-y, -x, z'
 7 '-y, x-y, z'
 8 'x, x-y, z'
 9 'x-y, -y, -z'
 10 'x-y, x, -z'
 11 'y, -x+y, -z'
 12 'y, x, -z'
 13 '2/3+x, 1/3+y, 1/3+z'
 14 '2/3-x+y, 1/3-x, 1/3+z'
 15 '2/3-x+y, 1/3+y, 1/3+z'
 16 '2/3-x, 1/3-x+y, 1/3-z'
 17 '2/3-x, 1/3-y, 1/3-z'
 18 '2/3-y, 1/3-x, 1/3+z'
 19 '2/3-y, 1/3+x-y, 1/3+z'
 20 '2/3+x, 1/3+x-y, 1/3+z'
 21 '2/3+x-y, 1/3-y, 1/3-z'
 22 '2/3+x-y, 1/3+x, 1/3-z'
 23 '2/3+y, 1/3-x+y, 1/3-z'
 24 '2/3+y, 1/3+x, 1/3-z'
 25 '1/3+x, 2/3+y, 2/3+z'
 26 '1/3-x+y, 2/3-x, 2/3+z'
 27 '1/3-x+y, 2/3+y, 2/3+z'
 28 '1/3-x, 2/3-x+y, 2/3-z'
 29 '1/3-x, 2/3-y, 2/3-z'
 30 '1/3-y, 2/3-x, 2/3+z'
 31 '1/3-y, 2/3+x-y, 2/3+z'
 32 '1/3+x, 2/3+x-y, 2/3+z'
 33 '1/3+x-y, 2/3-y, 2/3-z'
 34 '1/3+x-y, 2/3+x, 2/3-z'
 35 '1/3+y, 2/3-x+y, 2/3-z'
 36 '1/3+y, 2/3+x, 2/3-z'
loop_
 _atom_type_symbol
 Fe
 Ga
 Yb
loop_
 _atom_site_label
 _atom_site_type_symbol
 _atom_site_symmetry_multiplicity
 _atom_site_Wyckoff_symbol
 _atom_site_fract_x
 _atom_site_fract_y
 _atom_site_fract_z
 _atom_site_occupancy
 Fe52 Fe 36 i 0.38953 0.06663 0.0079 0.049
 Fe4 Fe 18 h 0.5007 0.4993 0.15527 1
 Fe51 Fe 18 f 0.29284 0 0 0.867
 Ga53 Ga 18 f 0.33333 0 0 0.035
 Fe3 Fe 9 d 0.5 0 0.5 1
 Ga2 Ga 6 c 0 0 0.0984 0.101
 Fe2 Fe 6 c 0 0 0.0991 0.798
 Fe12 Fe 6 c 0 0 0.2309 0.107
 Yb1 Yb 6 c 0 0 0.33953 0.893
 Fe11 Fe 6 c 0 0 0.42855 0.107
 Yb2 Yb 3 a 0 0 0 0.101


_exptl_crystal_colour                    black
_exptl_crystal_density_meas              ?
_exptl_crystal_density_diffrn            7.82
_cell_measurement_temperature            293
_cell_measurement_radiation              'X-rays, synchrotron'
_cell_measurement_wavelength             0.55091
_cell_measurement_reflns_used            3284
_diffrn_ambient_temperature              293
_diffrn_measurement_device               'automatic diffractometer'
_diffrn_measurement_device_type
'France, Grenoble, European Synchrotron Radiation Facility ESRF, SNBL'        
_diffrn_radiation_type                   'X-rays, synchrotron'
_diffrn_radiation_wavelength             0.55091
_diffrn_reflns_number                    1166
_diffrn_reflns_theta_min                 2.46
_diffrn_reflns_theta_max                 21.02
_exptl_absorpt_coefficient_mu            ?
_exptl_absorpt_correction_type           no
_computing_structure_solution            'direct methods'
_refine_ls_number_parameters             22
_refine_ls_number_reflns                 672
_refine_ls_R_factor_gt                   0.0667
_refine_ls_wR_factor_gt                  0.1878

# End of data set 1010978

