##############################################################################
#                                                                            #
# Pt-Si-U          # U3Pt5Si                                       # 1521672 #
#                                                                            #
##############################################################################
#                                                                            #
#                           Pearson's Crystal Data                           #
#      Crystal Structure Database for Inorganic Compounds (on DVD)           #
#                              Release 2023/24                               #
#                  Editors: Pierre Villars and Karin Cenzual                 #
#                                                                            #
#   Copyright (c) ASM International & Material Phases Data System (MPDS),    #
# Switzerland & National Institute for Materials Science (NIMS), Japan, 2023 #
#                   All rights reserved. Version 2023.07                     #
#                                                                            #
#   This copy of Pearson's Crystal Data is licensed to:                      #
#   Hunter College - City University of New York                             #
#                                                                            #
##############################################################################

data_1521672
_audit_creation_date                     2024-02-25
_audit_creation_method
;
Pearson's Crystal Data browser
;
#_database_code_PCD                      1521672
_database_code_PDF                       04-013-4752

# Entry summary

_chemical_formula_structural             'U~3~ Pt~5~ Si'
_chemical_formula_sum                    'Pt5 Si U3'
_chemical_name_mineral                   ?
_chemical_compound_source                ?
_chemical_name_structure_type            U~3~Pt~5~Si,oI40,74
_chemical_formula_weight                 1717.6

# Bibliographic data

_publ_section_title
;
Crystal structure and some magnetic properties of novel compounds: U~3~Pt~23~Si~11~, U~3~Pt~5~Si and U~6~Pt~30~Si~19~
;
_journal_coden_ASTM                      JALCEU
_journal_name_full                       'J. Alloys Compd.'
_journal_year                            2006
_journal_volume                          407
_journal_page_first                      36
_journal_page_last                       43
_journal_language                        English
loop_
 _publ_author_name
 _publ_author_address
'Chotard J.N.'
;
Rennes I University
Laboratoire de Chimie du Solide et Inorganique Moleculaire (LCSIM)
Rennes
France
;
'Tougait O.'
;
Rennes I University
Laboratoire de Chimie du Solide et Inorganique Moleculaire (LCSIM)
Rennes
France
;
'Noel H.'
;
Rennes I University
Laboratoire de Chimie du Solide et Inorganique Moleculaire (LCSIM)
Rennes
France
;
'Rogl P.'
;
Vienna University
Institut fur Physikalische Chemie
Vienna
Austria
;
'Zelinskii A.V.'
;
Lviv Ivan Franko National University
Department of Inorganic Chemistry
Lviv
Ukraine
;
'Bodak O.I.'
;
Lviv Ivan Franko National University
Department of Inorganic Chemistry
Lviv
Ukraine
;

# Standardized crystallographic data

_cell_length_a                           7.1733
_cell_length_b                           12.9671
_cell_length_c                           7.3578
_cell_angle_alpha                        90
_cell_angle_beta                         90
_cell_angle_gamma                        90
_cell_volume                             684.4
_cell_formula_units_Z                    4
_space_group_IT_number                   74
_space_group_name_H-M_alt                'I m m a'
loop_
 _space_group_symop_id
 _space_group_symop_operation_xyz
 1 'x, y, z'
 2 '-x, 1/2-y, z'
 3 '-x, -y, -z'
 4 '-x, 1/2+y, -z'
 5 '-x, y, z'
 6 'x, 1/2-y, z'
 7 'x, -y, -z'
 8 'x, 1/2+y, -z'
 9 '1/2+x, 1/2+y, 1/2+z'
 10 '1/2-x, 1-y, 1/2+z'
 11 '1/2-x, 1/2-y, 1/2-z'
 12 '1/2-x, 1+y, 1/2-z'
 13 '1/2-x, 1/2+y, 1/2+z'
 14 '1/2+x, 1-y, 1/2+z'
 15 '1/2+x, 1/2-y, 1/2-z'
 16 '1/2+x, 1+y, 1/2-z'
loop_
 _atom_type_symbol
 Pt
 U
 Si
loop_
 _atom_site_label
 _atom_site_type_symbol
 _atom_site_symmetry_multiplicity
 _atom_site_Wyckoff_symbol
 _atom_site_fract_x
 _atom_site_fract_y
 _atom_site_fract_z
 _atom_site_occupancy
 Pt1 Pt 16 j 0.2039 0.6037 0.0618 1
 Pt2 Pt 8 i 0.2148 0.25 0.2683 0.5
 U1 U 8 h 0 0.0474 0.2825 1
 Si1 Si 4 e 0 0.25 0.0339 1
 U2 U 4 e 0 0.25 0.6333 1


_exptl_crystal_colour                    ?
_exptl_crystal_density_meas              ?
_exptl_crystal_density_diffrn            16.67
_cell_measurement_temperature            ?
_cell_measurement_radiation              X-rays
_cell_measurement_reflns_used            ?
_diffrn_ambient_temperature              ?
_diffrn_measurement_device               'automatic diffractometer'
_diffrn_measurement_device_type          'Nonius KAPPA'
_diffrn_radiation_type                   X-rays
_diffrn_reflns_number                    6832
_diffrn_reflns_theta_min                 3.14
_diffrn_reflns_theta_max                 40.2
_exptl_absorpt_coefficient_mu            81
_exptl_absorpt_correction_type           analytical
_computing_structure_solution            'direct methods, Fourier synthesis'
_refine_ls_number_parameters             32
_refine_ls_number_reflns                 585
_refine_ls_R_factor_gt                   0.0478
_refine_ls_wR_factor_gt                  0.1178

# End of data set 1521672

