##############################################################################
#                                                                            #
# Pt-Si-U          # U6Pt30Si19                                    # 1521673 #
#                                                                            #
##############################################################################
#                                                                            #
#                           Pearson's Crystal Data                           #
#      Crystal Structure Database for Inorganic Compounds (on DVD)           #
#                              Release 2023/24                               #
#                  Editors: Pierre Villars and Karin Cenzual                 #
#                                                                            #
#   Copyright (c) ASM International & Material Phases Data System (MPDS),    #
# Switzerland & National Institute for Materials Science (NIMS), Japan, 2023 #
#                   All rights reserved. Version 2023.07                     #
#                                                                            #
#   This copy of Pearson's Crystal Data is licensed to:                      #
#   Hunter College - City University of New York                             #
#                                                                            #
##############################################################################

data_1521673
_audit_creation_date                     2024-02-25
_audit_creation_method
;
Pearson's Crystal Data browser
;
#_database_code_PCD                      1521673
_database_code_PDF                       04-013-4753

# Entry summary

_chemical_formula_structural             'U~6~ Pt~30~ Si~19~'
_chemical_formula_sum                    'Pt30 Si19 U6'
_chemical_name_mineral                   ?
_chemical_compound_source                ?
_chemical_name_structure_type            U~6~Pt~30~Si~19~,hP56,176
_chemical_formula_weight                 7814.5

# Bibliographic data

_publ_section_title
;
Crystal structure and some magnetic properties of novel compounds: U~3~Pt~23~Si~11~, U~3~Pt~5~Si and U~6~Pt~30~Si~19~
;
_journal_coden_ASTM                      JALCEU
_journal_name_full                       'J. Alloys Compd.'
_journal_year                            2006
_journal_volume                          407
_journal_page_first                      36
_journal_page_last                       43
_journal_language                        English
loop_
 _publ_author_name
 _publ_author_address
'Chotard J.N.'
;
Rennes I University
Laboratoire de Chimie du Solide et Inorganique Moleculaire (LCSIM)
Rennes
France
;
'Tougait O.'
;
Rennes I University
Laboratoire de Chimie du Solide et Inorganique Moleculaire (LCSIM)
Rennes
France
;
'Noel H.'
;
Rennes I University
Laboratoire de Chimie du Solide et Inorganique Moleculaire (LCSIM)
Rennes
France
;
'Rogl P.'
;
Vienna University
Institut fur Physikalische Chemie
Vienna
Austria
;
'Zelinskii A.V.'
;
Lviv Ivan Franko National University
Department of Inorganic Chemistry
Lviv
Ukraine
;
'Bodak O.I.'
;
Lviv Ivan Franko National University
Department of Inorganic Chemistry
Lviv
Ukraine
;

# Standardized crystallographic data

_cell_length_a                           15.9377
_cell_length_b                           15.9377
_cell_length_c                           3.9874
_cell_angle_alpha                        90
_cell_angle_beta                         90
_cell_angle_gamma                        120
_cell_volume                             877.1
_cell_formula_units_Z                    1
_space_group_IT_number                   176
_space_group_name_H-M_alt                'P 63/m'
loop_
 _space_group_symop_id
 _space_group_symop_operation_xyz
 1 'x, y, z'
 2 '-x+y, -x, 1/2-z'
 3 '-x+y, -x, z'
 4 '-x, -y, -z'
 5 '-x, -y, 1/2+z'
 6 '-y, x-y, 1/2-z'
 7 '-y, x-y, z'
 8 'x, y, 1/2-z'
 9 'x-y, x, -z'
 10 'x-y, x, 1/2+z'
 11 'y, -x+y, -z'
 12 'y, -x+y, 1/2+z'
loop_
 _atom_type_symbol
 Pt
 Si
 U
loop_
 _atom_site_label
 _atom_site_type_symbol
 _atom_site_symmetry_multiplicity
 _atom_site_Wyckoff_symbol
 _atom_site_fract_x
 _atom_site_fract_y
 _atom_site_fract_z
 _atom_site_occupancy
 Pt1 Pt 6 h 0.0389 0.2761 0.25 1
 Si1 Si 6 h 0.0618 0.4349 0.25 1
 Pt2 Pt 6 h 0.1223 0.1509 0.25 1
 Pt3 Pt 6 h 0.2258 0.5696 0.25 1
 Si2 Si 6 h 0.2567 0.1201 0.25 1
 U1 U 6 h 0.2961 0.3948 0.25 1
 Pt4 Pt 6 h 0.4143 0.2583 0.25 1
 Pt5 Pt 6 h 0.532 0.075 0.25 1
 Si3 Si 6 h 0.5601 0.2409 0.25 1
 Si4 Si 2 b 0 0 0 0.5


_exptl_crystal_colour                    ?
_exptl_crystal_density_meas              ?
_exptl_crystal_density_diffrn            14.79
_cell_measurement_temperature            ?
_cell_measurement_radiation              X-rays
_cell_measurement_reflns_used            ?
_diffrn_ambient_temperature              ?
_diffrn_measurement_device               'automatic diffractometer'
_diffrn_measurement_device_type          'Nonius KAPPA'
_diffrn_radiation_type                   X-rays
_diffrn_reflns_number                    31218
_diffrn_reflns_theta_min                 2.56
_diffrn_reflns_theta_max                 50.54
_exptl_absorpt_coefficient_mu            147
_exptl_absorpt_correction_type           analytical
_computing_structure_solution            'direct methods, Fourier synthesis'
_refine_ls_number_parameters             60
_refine_ls_number_reflns                 3409
_refine_ls_R_factor_gt                   0.0450
_refine_ls_wR_factor_gt                  0.1135

# End of data set 1521673

