##############################################################################
#                                                                            #
# Ce-Pd-Sb         # CePdSb3 orth                                  # 1521028 #
#                                                                            #
##############################################################################
#                                                                            #
#                           Pearson's Crystal Data                           #
#      Crystal Structure Database for Inorganic Compounds (on DVD)           #
#                              Release 2023/24                               #
#                  Editors: Pierre Villars and Karin Cenzual                 #
#                                                                            #
#   Copyright (c) ASM International & Material Phases Data System (MPDS),    #
# Switzerland & National Institute for Materials Science (NIMS), Japan, 2023 #
#                   All rights reserved. Version 2023.07                     #
#                                                                            #
#   This copy of Pearson's Crystal Data is licensed to:                      #
#   Hunter College - City University of New York                             #
#                                                                            #
##############################################################################

data_1521028
_audit_creation_date                     2024-02-24
_audit_creation_method
;
Pearson's Crystal Data browser
;
#_database_code_PCD                      1521028
_database_code_PDF                       04-012-0597

# Entry summary

_chemical_formula_structural             'Ce Pd Sb~3~'
_chemical_formula_sum                    'Ce Pd Sb3'
_chemical_name_mineral                   ?
_chemical_compound_source                ?
_chemical_name_structure_type            CePdSb~3~,oP40,57
_chemical_formula_weight                 611.8

# Bibliographic data

_publ_section_title
'Magnetic Properties of an Antiferromagnet CePdSb~3~'                         
_journal_coden_ASTM                      JUPSAU
_journal_name_full                       'J. Phys. Soc. Jpn.'
_journal_year                            2005
_journal_volume                          74
_journal_page_first                      2617
_journal_page_last                       2621
_journal_language                        English
loop_
 _publ_author_name
 _publ_author_address
'Thamizhavel A.'
;
Osaka University
Graduate School of Science
Toyonaka / Osaka
Japan
;
'Onuki Y.'
;
Osaka University
Graduate School of Science
Toyonaka / Osaka
Japan
;
'Nakashima H.'
;
Osaka University
Graduate School of Science
Toyonaka / Osaka
Japan
;
'Shiromoto T.'
;
Osaka University
Graduate School of Science
Toyonaka / Osaka
Japan
;
'Obiraki Y.'
;
Osaka University
Graduate School of Science
Toyonaka / Osaka
Japan
;
'Matsuda T.D.'
;
Japan Atomic Energy Research Institute (JAERI)
Center of Advanced Science Research
Tokai / Ibaraki
Japan
;
'Haga Y.'
;
Japan Atomic Energy Research Institute (JAERI)
Center of Advanced Science Research
Tokai / Ibaraki
Japan
;
'Ramakrishnan S.'
;
Tata Institute of Fundamental Research (TIFR)
Mumbai / Maharashtra
India
;
'Takeuchi T.'
;
Osaka University
Low Temperature Center
Toyonaka / Osaka
Japan
;
'Settai R.'
;
Osaka University
Graduate School of Science
Toyonaka / Osaka
Japan
;

# Standardized crystallographic data

_cell_length_a                           12.78
_cell_length_b                           6.33
_cell_length_c                           12.453
_cell_angle_alpha                        90
_cell_angle_beta                         90
_cell_angle_gamma                        90
_cell_volume                             1007.4
_cell_formula_units_Z                    8
_space_group_IT_number                   57
_space_group_name_H-M_alt                'P b c m'
loop_
 _space_group_symop_id
 _space_group_symop_operation_xyz
 1 'x, y, z'
 2 '-x, -y, -z'
 3 '-x, -y, 1/2+z'
 4 '-x, 1/2+y, 1/2-z'
 5 '-x, 1/2+y, z'
 6 'x, 1/2-y, -z'
 7 'x, 1/2-y, 1/2+z'
 8 'x, y, 1/2-z'
loop_
 _atom_type_symbol
 Sb
 Pd
 Ce
loop_
 _atom_site_label
 _atom_site_type_symbol
 _atom_site_symmetry_multiplicity
 _atom_site_Wyckoff_symbol
 _atom_site_fract_x
 _atom_site_fract_y
 _atom_site_fract_z
 _atom_site_occupancy
 Sb1 Sb 8 e 0.00352 0.01447 0.12254 1
 Pd Pd 8 e 0.39649 0.04763 0.13426 1
 Ce2 Ce 4 d 0.19103 0.27771 0.25 1
 Sb5 Sb 4 d 0.437 0.4228 0.25 1
 Sb4 Sb 4 d 0.72762 0.26534 0.25 1
 Sb2 Sb 4 c 0.26294 0.25 0 1
 Sb3 Sb 4 c 0.52621 0.25 0 1
 Ce1 Ce 4 c 0.80188 0.25 0 1


_exptl_crystal_colour                    ?
_exptl_crystal_density_meas              ?
_exptl_crystal_density_diffrn            8.07
_cell_measurement_temperature            ?
_cell_measurement_radiation              'X-rays, Mo Ka'
_cell_measurement_reflns_used            ?
_diffrn_ambient_temperature              ?
_diffrn_measurement_device               'automatic diffractometer'
_diffrn_measurement_device_type          ?
_diffrn_radiation_type                   'X-rays, Mo Ka'
_diffrn_reflns_number                    ?
_exptl_absorpt_coefficient_mu            ?
_exptl_absorpt_correction_type           ?
_computing_structure_solution            'starting values from the literature'
_refine_ls_number_parameters             ?
_refine_ls_number_reflns                 ?
_refine_ls_R_factor_gt                   ?
_refine_ls_wR_factor_gt                  ?

# End of data set 1521028

