##############################################################################
#                                                                            #
# Fe-Ga-Yb         # Yb2Fe10.5Ga6.5                                # 1522131 #
#                                                                            #
##############################################################################
#                                                                            #
#                           Pearson's Crystal Data                           #
#      Crystal Structure Database for Inorganic Compounds (on DVD)           #
#                              Release 2023/24                               #
#                  Editors: Pierre Villars and Karin Cenzual                 #
#                                                                            #
#   Copyright (c) ASM International & Material Phases Data System (MPDS),    #
# Switzerland & National Institute for Materials Science (NIMS), Japan, 2023 #
#                   All rights reserved. Version 2023.07                     #
#                                                                            #
#   This copy of Pearson's Crystal Data is licensed to:                      #
#   Hunter College - City University of New York                             #
#                                                                            #
##############################################################################

data_1522131
_audit_creation_date                     2024-02-24
_audit_creation_method
;
Pearson's Crystal Data browser
;
#_database_code_PCD                      1522131
_database_code_PDF                       04-013-5081

# Entry summary

_chemical_formula_structural             'Yb~2.06~ Fe~12.3~ Ga~4.7~'
_chemical_formula_sum                    'Fe12.34 Ga4.66 Yb2.07'
_chemical_name_mineral                   ?
_chemical_compound_source                ?
_chemical_name_structure_type            Yb~2.03~Fe~13.21~Al~3.73~,hR78,166
_chemical_formula_weight                 1371.1

# Bibliographic data

_publ_section_title
;
Structural and magnetic properties of iron-rich compounds in the Yb-Fe-Ga system
;
_journal_coden_ASTM                      JALCEU
_journal_name_full                       'J. Alloys Compd.'
_journal_year                            2006
_journal_volume                          415
_journal_page_first                      8
_journal_page_last                       11
_journal_language                        English
loop_
 _publ_author_name
 _publ_author_address
'Tokaychuk Y.O.'
;
Geneva University (UNIGE)
Laboratoire de Cristallographie
Geneva
Switzerland
;
'Bodak O.I.'
;
Lviv Ivan Franko National University
Department of Inorganic Chemistry
Lviv
Ukraine
;
'Gorelenko Y.K.'
;
Lviv Ivan Franko National University
Department of Inorganic Chemistry
Lviv
Ukraine
;
'Yvon K.'
;
Geneva University (UNIGE)
Laboratoire de Cristallographie
Geneva
Switzerland
;

# Standardized crystallographic data

_cell_length_a                           8.672
_cell_length_b                           8.672
_cell_length_c                           12.5649
_cell_angle_alpha                        90
_cell_angle_beta                         90
_cell_angle_gamma                        120
_cell_volume                             818.3
_cell_formula_units_Z                    3
_space_group_IT_number                   166
_space_group_name_H-M_alt                'R -3 m h'
loop_
 _space_group_symop_id
 _space_group_symop_operation_xyz
 1 'x, y, z'
 2 '-x+y, -x, z'
 3 '-x+y, y, z'
 4 '-x, -x+y, -z'
 5 '-x, -y, -z'
 6 '-y, -x, z'
 7 '-y, x-y, z'
 8 'x, x-y, z'
 9 'x-y, -y, -z'
 10 'x-y, x, -z'
 11 'y, -x+y, -z'
 12 'y, x, -z'
 13 '2/3+x, 1/3+y, 1/3+z'
 14 '2/3-x+y, 1/3-x, 1/3+z'
 15 '2/3-x+y, 1/3+y, 1/3+z'
 16 '2/3-x, 1/3-x+y, 1/3-z'
 17 '2/3-x, 1/3-y, 1/3-z'
 18 '2/3-y, 1/3-x, 1/3+z'
 19 '2/3-y, 1/3+x-y, 1/3+z'
 20 '2/3+x, 1/3+x-y, 1/3+z'
 21 '2/3+x-y, 1/3-y, 1/3-z'
 22 '2/3+x-y, 1/3+x, 1/3-z'
 23 '2/3+y, 1/3-x+y, 1/3-z'
 24 '2/3+y, 1/3+x, 1/3-z'
 25 '1/3+x, 2/3+y, 2/3+z'
 26 '1/3-x+y, 2/3-x, 2/3+z'
 27 '1/3-x+y, 2/3+y, 2/3+z'
 28 '1/3-x, 2/3-x+y, 2/3-z'
 29 '1/3-x, 2/3-y, 2/3-z'
 30 '1/3-y, 2/3-x, 2/3+z'
 31 '1/3-y, 2/3+x-y, 2/3+z'
 32 '1/3+x, 2/3+x-y, 2/3+z'
 33 '1/3+x-y, 2/3-y, 2/3-z'
 34 '1/3+x-y, 2/3+x, 2/3-z'
 35 '1/3+y, 2/3-x+y, 2/3-z'
 36 '1/3+y, 2/3+x, 2/3-z'
loop_
 _atom_type_symbol
 Fe
 Ga
 Yb
loop_
 _atom_site_label
 _atom_site_type_symbol
 _atom_site_symmetry_multiplicity
 _atom_site_Wyckoff_symbol
 _atom_site_fract_x
 _atom_site_fract_y
 _atom_site_fract_z
 _atom_site_occupancy
 Fe,Ga3A Fe 18 h 0.4991 0.5009 0.1574 0.85(2)
 Fe,Ga3B Ga 18 h 0.4991 0.5009 0.1574 0.15(2)
 Fe,Ga2A Fe 18 f 0.2967 0 0 0.4672
 Fe,Ga2B Ga 18 f 0.2967 0 0 0.2628
 Ga Ga 18 f 0.3333 0 0 0.27
 Fe Fe 9 d 0.5 0 0.5 1
 Fe,Ga1A Fe 6 c 0 0 0.1055 0.716564
 Fe,Ga1B Ga 6 c 0 0 0.1055 0.281436
 Yb1 Yb 6 c 0 0 0.3471 1
 Yb2 Yb 3 a 0 0 0 0.069


_exptl_crystal_colour                    ?
_exptl_crystal_density_meas              ?
_exptl_crystal_density_diffrn            8.35
_cell_measurement_temperature            ?
_cell_measurement_radiation              'X-rays, Co Ka'
_cell_measurement_reflns_used            ?
_diffrn_ambient_temperature              ?
_diffrn_measurement_device               'automatic diffractometer'
_diffrn_measurement_device_type          OMNI
_diffrn_radiation_type                   'X-rays, Co Ka'
_diffrn_reflns_number                    ?
_diffrn_reflns_theta_min                 2.75
_diffrn_reflns_theta_max                 19.75
_pd_proc_2theta_range_min                5.5
_pd_proc_2theta_range_max                39.5
_exptl_absorpt_coefficient_mu            ?
_exptl_absorpt_correction_type           ?
_computing_structure_solution            'starting values from the literature'
_refine_ls_number_parameters             ?
_refine_ls_number_reflns                 ?
_refine_ls_R_factor_gt                   ?
_refine_ls_wR_factor_gt                  ?
_pd_proc_ls_proof_R_factor               0.183
_pd_proc_ls_proof_wR_factor              0.200
_refine_ls_R_I_factor                    0.0667

# End of data set 1522131

