##############################################################################
#                                                                            #
# Eu-In-Ir         # EuIr2In8                                      # 1530768 #
#                                                                            #
##############################################################################
#                                                                            #
#                           Pearson's Crystal Data                           #
#      Crystal Structure Database for Inorganic Compounds (on DVD)           #
#                              Release 2023/24                               #
#                  Editors: Pierre Villars and Karin Cenzual                 #
#                                                                            #
#   Copyright (c) ASM International & Material Phases Data System (MPDS),    #
# Switzerland & National Institute for Materials Science (NIMS), Japan, 2023 #
#                   All rights reserved. Version 2023.07                     #
#                                                                            #
#   This copy of Pearson's Crystal Data is licensed to:                      #
#   Hunter College - City University of New York                             #
#                                                                            #
##############################################################################

data_1530768
_audit_creation_date                     2024-02-24
_audit_creation_method
;
Pearson's Crystal Data browser
;
#_database_code_PCD                      1530768
_database_code_PDF                       04-023-3306

# Entry summary

_chemical_formula_structural             'Eu Ir~2~ In~8~'
_chemical_formula_sum                    'Eu In8 Ir2'
_chemical_name_mineral                   ?
_chemical_compound_source                ?
_chemical_name_structure_type            CeFe~2~Al~8~,oP44,55
_chemical_formula_weight                 1455.0

# Bibliographic data

_publ_section_title
'Synthesis, structure, and complex magnetism of MIr~2~In~8~ (M= Eu, Sr)'      
_journal_coden_ASTM                      INOCAJ
_journal_name_full                       'Inorg. Chem.'
_journal_year                            2016
_journal_volume                          55
_journal_page_first                      3128
_journal_page_last                       3135
_journal_language                        English
loop_
 _publ_author_name
 _publ_author_address
'Calta N.P.'
;
Northwestern University (NU)
Department of Chemistry
Evanston
U.S.A. Illinois
;
'Bud'ko S.L.'
;
Iowa State University of Science and Technology (ISU)
Department of Physics and Astronomy
Ames
U.S.A. Iowa
;
'Rodriguez A.P.'
;
Northwestern University (NU)
Department of Chemistry
Evanston
U.S.A. Illinois
;
'Han F.'
;
Argonne National Laboratory
Division of Materials Science
Argonne
U.S.A. Illinois
;
'Chung D.Y.'
;
Argonne National Laboratory
Division of Materials Science
Argonne
U.S.A. Illinois
;
'Kanatzidis M.G.'
;
Northwestern University (NU)
Department of Chemistry
Evanston
U.S.A. Illinois
;

# Standardized crystallographic data

_cell_length_a                           13.8468
_cell_length_b                           16.1177
_cell_length_c                           4.3885
_cell_angle_alpha                        90
_cell_angle_beta                         90
_cell_angle_gamma                        90
_cell_volume                             979.42
_cell_formula_units_Z                    4
_space_group_IT_number                   55
_space_group_name_H-M_alt                'P b a m'
loop_
 _space_group_symop_id
 _space_group_symop_operation_xyz
 1 'x, y, z'
 2 '1/2-x, 1/2+y, -z'
 3 '1/2-x, 1/2+y, z'
 4 '-x, -y, -z'
 5 '-x, -y, z'
 6 '1/2+x, 1/2-y, -z'
 7 '1/2+x, 1/2-y, z'
 8 'x, y, -z'
loop_
 _atom_type_symbol
 In
 Ir
 Eu
loop_
 _atom_site_label
 _atom_site_type_symbol
 _atom_site_symmetry_multiplicity
 _atom_site_Wyckoff_symbol
 _atom_site_fract_x
 _atom_site_fract_y
 _atom_site_fract_z
 _atom_site_occupancy
 In1 In 4 h 0.01933 0.1339 0.5 1
 In4 In 4 h 0.1694 -0.01187 0.5 1
 In2 In 4 h 0.16713 0.37793 0.5 1
 In3 In 4 h 0.23998 0.17784 0.5 1
 In5 In 4 h 0.44869 0.1833 0.5 1
 Ir1 Ir 4 g 0.03448 0.40449 0 1
 In6 In 4 g 0.10019 0.25348 0 1
 Ir2 Ir 4 g 0.15361 0.09645 0 1
 Eu1 Eu 4 g 0.34263 0.31924 0 1
 In7 In 4 g 0.33996 0.04431 0 1
 In8 In 2 d 0 0.5 0.5 1
 In9 In 2 a 0 0 0 1


_exptl_crystal_colour                    ?
_exptl_crystal_density_meas              ?
_exptl_crystal_density_diffrn            9.87
_cell_measurement_temperature            293(2)
_cell_measurement_radiation              'X-rays, Mo Ka'
_cell_measurement_wavelength             0.71073
_cell_measurement_reflns_used            11040
_diffrn_ambient_temperature              293(2)
_diffrn_measurement_device               'automatic diffractometer'
_diffrn_measurement_device_type          'STOE IPDS'
_diffrn_radiation_type                   'X-rays, Mo Ka'
_diffrn_radiation_wavelength             0.71073
_diffrn_reflns_number                    14394
_diffrn_reflns_theta_min                 2.92
_diffrn_reflns_theta_max                 34.87
_exptl_absorpt_coefficient_mu            51.720
_exptl_absorpt_correction_type           analytical
_computing_structure_solution            'direct methods, Fourier synthesis'
_refine_ls_number_parameters             70
_refine_ls_number_reflns                 2045
_refine_ls_R_factor_gt                   0.0343
_refine_ls_wR_factor_gt                  0.0471

# End of data set 1530768

