##############################################################################
#                                                                            #
# Ce-Ge-Pt         # Ce3Pt4Ge6                                     # 1532457 #
#                                                                            #
##############################################################################
#                                                                            #
#                           Pearson's Crystal Data                           #
#      Crystal Structure Database for Inorganic Compounds (on DVD)           #
#                              Release 2023/24                               #
#                  Editors: Pierre Villars and Karin Cenzual                 #
#                                                                            #
#   Copyright (c) ASM International & Material Phases Data System (MPDS),    #
# Switzerland & National Institute for Materials Science (NIMS), Japan, 2023 #
#                   All rights reserved. Version 2023.07                     #
#                                                                            #
#   This copy of Pearson's Crystal Data is licensed to:                      #
#   Hunter College - City University of New York                             #
#                                                                            #
##############################################################################

data_1532457
_audit_creation_date                     2024-02-24
_audit_creation_method
;
Pearson's Crystal Data browser
;
#_database_code_PCD                      1532457
_database_code_PDF                       ?

# Entry summary

_chemical_formula_structural             'Ce~3~ Pt~4~ Ge~6~'
_chemical_formula_sum                    'Ce3 Ge6 Pt4'
_chemical_name_mineral                   ?
_chemical_compound_source                ?
_chemical_name_structure_type            Ce~3~Pt~4~Ge~6~,oS32,63
_chemical_formula_weight                 1636.3

# Bibliographic data

_publ_section_title
'Revisiting Ce~3~Pt~4~Ge~6~ - crystal structure and physical properties'      
_journal_coden_ASTM                      ICFNAW
_journal_name_full                       'Inorg. Chem. Front.'
_journal_year                            2016
_journal_volume                          3
_journal_page_first                      1289
_journal_page_last                       1296
_journal_language                        English
loop_
 _publ_author_name
 _publ_author_address
'Janka O.'
;
Oldenburg Carl von Ossietzky University
Institut fur Chemie
Oldenburg
Germany
;
'Hoffmann R.D.'
;
Munster University (WWU)
Institut fur Anorganische und Analytische Chemie
Munster
Germany
;
'Eilers Rethwisch M.'
;
Munster University (WWU)
Institut fur Anorganische und Analytische Chemie
Munster
Germany
;
'Rodewald U.C.'
;
Munster University (WWU)
Institut fur Anorganische und Analytische Chemie
Munster
Germany
;
'Niehaus O.'
;
Munster University (WWU)
Institut fur Anorganische und Analytische Chemie
Munster
Germany
;
'Pottgen R.'
;
Munster University (WWU)
Institut fur Anorganische und Analytische Chemie
Munster
Germany
;

# Standardized crystallographic data

_cell_length_a                           4.4117
_cell_length_b                           26.1826
_cell_length_c                           4.4133
_cell_angle_alpha                        90
_cell_angle_beta                         90
_cell_angle_gamma                        90
_cell_volume                             509.8
_cell_formula_units_Z                    2
_space_group_IT_number                   63
_space_group_name_H-M_alt                'C m c m'
loop_
 _space_group_symop_id
 _space_group_symop_operation_xyz
 1 'x, y, z'
 2 '-x, -y, -z'
 3 '-x, -y, 1/2+z'
 4 '-x, y, 1/2-z'
 5 '-x, y, z'
 6 'x, -y, -z'
 7 'x, -y, 1/2+z'
 8 'x, y, 1/2-z'
 9 '1/2+x, 1/2+y, z'
 10 '1/2-x, 1/2-y, -z'
 11 '1/2-x, 1/2-y, 1/2+z'
 12 '1/2-x, 1/2+y, 1/2-z'
 13 '1/2-x, 1/2+y, z'
 14 '1/2+x, 1/2-y, -z'
 15 '1/2+x, 1/2-y, 1/2+z'
 16 '1/2+x, 1/2+y, 1/2-z'
loop_
 _atom_type_symbol
 Ge
 Ce
 Pt
loop_
 _atom_site_label
 _atom_site_type_symbol
 _atom_site_symmetry_multiplicity
 _atom_site_Wyckoff_symbol
 _atom_site_fract_x
 _atom_site_fract_y
 _atom_site_fract_z
 _atom_site_occupancy
 Ge3 Ge 8 g 0.2039 0.03563 0.25 0.5
 Ce1 Ce 4 c 0 0.15781 0.25 1
 Pt2 Pt 4 c 0 0.29567 0.25 1
 Ge2 Ge 4 c 0 0.3898 0.25 1
 Ce2 Ce 4 c 0 0.52888 0.25 0.5
 Ge1 Ge 4 c 0 0.75016 0.25 1
 Pt1 Pt 4 c 0 0.93729 0.25 1


_exptl_crystal_colour                    ?
_exptl_crystal_density_meas              ?
_exptl_crystal_density_diffrn            10.66
_cell_measurement_temperature            293
_cell_measurement_radiation              'X-rays, Mo Ka'
_cell_measurement_wavelength             0.71073
_cell_measurement_reflns_used            ?
_diffrn_ambient_temperature              293
_diffrn_measurement_device               'automatic diffractometer'
_diffrn_measurement_device_type          'STOE IPDS II'
_diffrn_radiation_type                   'X-rays, Mo Ka'
_diffrn_radiation_wavelength             0.71073
_diffrn_reflns_number                    23224
_diffrn_reflns_theta_min                 2.4
_diffrn_reflns_theta_max                 30.7
_exptl_absorpt_coefficient_mu            85.0
_exptl_absorpt_correction_type           analytical
_computing_structure_solution            'charge flipping'
_refine_ls_number_parameters             63
_refine_ls_number_reflns                 930
_refine_ls_R_factor_gt                   0.0186
_refine_ls_wR_factor_gt                  0.0451

# End of data set 1532457

