##############################################################################
#                                                                            #
# Ge-Ru-Sm         # Sm2Ru3Ge5 lt                                  # 1533331 #
#                                                                            #
##############################################################################
#                                                                            #
#                           Pearson's Crystal Data                           #
#      Crystal Structure Database for Inorganic Compounds (on DVD)           #
#                              Release 2023/24                               #
#                  Editors: Pierre Villars and Karin Cenzual                 #
#                                                                            #
#   Copyright (c) ASM International & Material Phases Data System (MPDS),    #
# Switzerland & National Institute for Materials Science (NIMS), Japan, 2023 #
#                   All rights reserved. Version 2023.07                     #
#                                                                            #
#   This copy of Pearson's Crystal Data is licensed to:                      #
#   Hunter College - City University of New York                             #
#                                                                            #
##############################################################################

data_1533331
_audit_creation_date                     2024-02-25
_audit_creation_method
;
Pearson's Crystal Data browser
;
#_database_code_PCD                      1533331
_database_code_PDF                       04-024-4508

# Entry summary

_chemical_formula_structural             'Sm~2~ Ru~3~ Ge~5~'
_chemical_formula_sum                    'Ge5 Ru3 Sm2'
_chemical_name_mineral                   ?
_chemical_compound_source                ?
_chemical_name_structure_type            Sm~2~Ru~3~Ge~5~,mP40,6
_chemical_formula_weight                 967.0

# Bibliographic data

_publ_section_title
'Charge density wave in the new polymorphs of R~2~Ru~3~Ge~5~ (R= Pr, Sm, Dy)' 
_journal_coden_ASTM                      JACSAT
_journal_name_full                       'J. Am. Chem. Soc.'
_journal_year                            2017
_journal_volume                          139
_journal_page_first                      4130
_journal_page_last                       4143
_journal_language                        English
loop_
 _publ_author_name
 _publ_author_address
'Bugaris D.E.'
;
Argonne National Laboratory
Materials Science Division
Argonne
U.S.A. Illinois
;
'Trimarchi G.'
;
Northwestern University (NU)
Department of Physics and Astronomy
Evanston
U.S.A. Illinois
;
'Bud'ko S.L.'
;
Iowa State University of Science and Technology (ISU)
Ames Laboratory
Ames
U.S.A. Iowa
;
'Balasubramanian M.'
;
Argonne National Laboratory
X-ray Science Division
Argonne
U.S.A. Illinois
;
'Chung D.Y.'
;
Argonne National Laboratory
Materials Science Division
Argonne
U.S.A. Illinois
;
'Kanatzidis M.G.'
;
Argonne National Laboratory
Materials Science Division
Argonne
U.S.A. Illinois
;
'Malliakas C.D.'
;
Argonne National Laboratory
Materials Science Division
Argonne
U.S.A. Illinois
;
'Han F.'
;
Argonne National Laboratory
Materials Science Division
Argonne
U.S.A. Illinois
;
'Calta N.P.'
;
Northwestern University (NU)
Department of Chemistry
Evanston
U.S.A. Illinois
;
'Sturza M.'
;
Argonne National Laboratory
Materials Science Division
Argonne
U.S.A. Illinois
;
'Krogstad M.J.'
;
Argonne National Laboratory
Materials Science Division
Argonne
U.S.A. Illinois
;
'Osborn R.'
;
Argonne National Laboratory
Materials Science Division
Argonne
U.S.A. Illinois
;
'Rosenkranz S.'
;
Argonne National Laboratory
Materials Science Division
Argonne
U.S.A. Illinois
;
'Ruff J.P.C.'
;
Cornell University
Cornell High Energy Synchrotron Source
Ithaca
U.S.A. New York
;

# Standardized crystallographic data

_cell_length_a                           10.9942
_cell_length_b                           5.7823
_cell_length_c                           10.9955
_cell_angle_alpha                        90
_cell_angle_beta                         90.
_cell_angle_gamma                        90
_cell_volume                             699
_cell_formula_units_Z                    4
_space_group_IT_number                   6
_space_group_name_H-M_alt                'P 1 m 1'
loop_
 _space_group_symop_id
 _space_group_symop_operation_xyz
 1 'x, y, z'
 2 'x, -y, z'
loop_
 _atom_type_symbol
 Ge
 Ru
 Sm
loop_
 _atom_site_label
 _atom_site_type_symbol
 _atom_site_symmetry_multiplicity
 _atom_site_Wyckoff_symbol
 _atom_site_fract_x
 _atom_site_fract_y
 _atom_site_fract_z
 _atom_site_occupancy
 Ge14 Ge 2 c 0.0025 0.2504 0.2064 1
 Ge7 Ge 2 c 0.1788 0.248 0.5312 1
 Ru10 Ru 2 c 0.1808 0.2494 0.0317 1
 Ge12 Ge 2 c 0.3537 0.2492 0.8549 1
 Ge11 Ge 2 c 0.5077 0.2605 0.3508 1
 Ge10 Ge 2 c 0.6793 0.2508 0.0303 1
 Ru9 Ru 2 c 0.6795 0.2498 0.5312 1
 Ge13 Ge 2 c 0.8591 0.2377 0.702 1
 Ru7 Ru 1 b 0.0368 0.5 0.6539 1
 Ru4 Ru 1 b 0.0567 0.5 0.3869 1
 Ge9 Ge 1 b 0.1498 0.5 0.8494 1
 Ge2 Ge 1 b 0.2085 0.5 0.2112 1
 Ru3 Ru 1 b 0.3025 0.5 0.6726 1
 Ru2 Ru 1 b 0.3226 0.5 0.408 1
 Sm8 Sm 1 b 0.4433 0.5 0.1006 1
 Ge6 Ge 1 b 0.4995 0.5 0.5605 1
 Sm5 Sm 1 b 0.6107 0.5 0.7944 1
 Sm4 Sm 1 b 0.7508 0.5 0.2666 1
 Ge3 Ge 1 b 0.8615 0.5 0.5008 1
 Sm1 Sm 1 b 0.9155 0.5 0.9522 1
 Ge1 Ge 1 a 0.0 0 0.0 1
 Sm7 Sm 1 a 0.1116 0 0.7655 1
 Sm2 Sm 1 a 0.2517 0 0.2929 1
 Ge8 Ge 1 a 0.3616 0 0.0599 1
 Sm6 Sm 1 a 0.4157 0 0.5985 1
 Ru6 Ru 1 a 0.5377 0 0.908 1
 Ru8 Ru 1 a 0.557 0 0.1728 1
 Ge5 Ge 1 a 0.6507 0 0.7109 1
 Ge4 Ge 1 a 0.7103 0 0.3492 1
 Ru1 Ru 1 a 0.803 0 0.8871 1
 Ru5 Ru 1 a 0.8235 0 0.1539 1
 Sm3 Sm 1 a 0.9436 0 0.4582 1


_exptl_crystal_colour                    black
_exptl_crystal_density_meas              ?
_exptl_crystal_density_diffrn            9.19
_cell_measurement_temperature            100
_cell_measurement_radiation              'X-rays, Mo Ka'
_cell_measurement_wavelength             0.71073
_cell_measurement_reflns_used            ?
_diffrn_ambient_temperature              100
_diffrn_measurement_device               'automatic diffractometer'
_diffrn_measurement_device_type          'STOE IPDS 2T'
_diffrn_radiation_type                   'X-rays, Mo Ka'
_diffrn_radiation_wavelength             0.71073
_diffrn_reflns_number                    70542
_diffrn_reflns_theta_min                 0.57
_diffrn_reflns_theta_max                 45.81
_exptl_absorpt_coefficient_mu            43.845
_exptl_absorpt_correction_type           analytical
_computing_structure_solution            'direct methods, Fourier synthesis'
_refine_ls_number_parameters             ?
_refine_ls_number_reflns                 17468
_refine_ls_R_factor_gt                   0.0636
_refine_ls_wR_factor_gt                  0.1723

# End of data set 1533331

