##############################################################################
#                                                                            #
# Eu-Ge-Ni         # Eu2Ni3Ge5                                     # 1533793 #
#                                                                            #
##############################################################################
#                                                                            #
#                           Pearson's Crystal Data                           #
#      Crystal Structure Database for Inorganic Compounds (on DVD)           #
#                              Release 2023/24                               #
#                  Editors: Pierre Villars and Karin Cenzual                 #
#                                                                            #
#   Copyright (c) ASM International & Material Phases Data System (MPDS),    #
# Switzerland & National Institute for Materials Science (NIMS), Japan, 2023 #
#                   All rights reserved. Version 2023.07                     #
#                                                                            #
#   This copy of Pearson's Crystal Data is licensed to:                      #
#   Hunter College - City University of New York                             #
#                                                                            #
##############################################################################

data_1533793
_audit_creation_date                     2024-02-24
_audit_creation_method
;
Pearson's Crystal Data browser
;
#_database_code_PCD                      1533793
_database_code_PDF                       04-024-4816

# Entry summary

_chemical_formula_structural             'Eu~2~ Ni~3~ Ge~5~'
_chemical_formula_sum                    'Eu2 Ge5 Ni3'
_chemical_name_mineral                   ?
_chemical_compound_source                ?
_chemical_name_structure_type            U~2~Co~3~Si~5~,oI40,72
_chemical_formula_weight                 843.0

# Bibliographic data

_publ_section_title
;
Unique pressure versus temperature phase diagram for antiferromagnets Eu~2~Ni~3~Ge~5~ and EuRhSi~3~
;
_journal_coden_ASTM                      JUPSAU
_journal_name_full                       'J. Phys. Soc. Jpn.'
_journal_year                            2017
_journal_volume                          86
_journal_page_first                      1
_journal_page_last                       13
_journal_language                        English
loop_
 _publ_author_name
 _publ_author_address
'Nakashima M.'
;
Shinshu University
Department of Physics
Matsumoto / Nagano
Japan
;
'Nakamura A.'
;
Ryukyus University
Graduate School of Engineering and Science
Nishihara / Okinawa
Japan
;
'Akamine H.'
;
Ryukyus University
Graduate School of Engineering and Science
Nishihara / Okinawa
Japan
;
'Tomori K.'
;
Ryukyus University
Graduate School of Engineering and Science
Nishihara / Okinawa
Japan
;
'Yara T.'
;
Ryukyus University
Graduate School of Engineering and Science
Nishihara / Okinawa
Japan
;
'Ashitomi Y.'
;
Ryukyus University
Graduate School of Engineering and Science
Nishihara / Okinawa
Japan
;
'Hedo M.'
;
Ryukyus University
Faculty of Science
Nishihara / Okinawa
Japan
;
'Nakama T.'
;
Ryukyus University
Faculty of Science
Nishihara / Okinawa
Japan
;
'Onuki Y.'
;
Ryukyus University
Faculty of Science
Nishihara / Okinawa
Japan
;
'Amako Y.'
;
Shinshu University
Department of Physics
Matsumoto / Nagano
Japan
;
'Matsubayashi K.'
;
Tokyo University
Institute for Solid State Physics (ISSP)
Kashiwa / Chiba
Japan
;
'Uwatoko Y.'
;
Tokyo University
Institute for Solid State Physics (ISSP)
Kashiwa / Chiba
Japan
;
'Nada M.'
;
Osaka University
Graduate School of Science
Toyonaka / Osaka
Japan
;
'Sugiyama K.'
;
Osaka University
Graduate School of Science
Toyonaka / Osaka
Japan
;
'Hagiwara M.'
;
Osaka University
Graduate School of Science
Toyonaka / Osaka
Japan
;
'Haga Y.'
;
Japan Atomic Energy Agency (JAEA)
Advanced Science Research Center
Tokai / Ibaraki
Japan
;
'Takeuchi T.'
;
Osaka University
Low Temperature Center
Toyonaka / Osaka
Japan
;

# Standardized crystallographic data

_cell_length_a                           9.9416
_cell_length_b                           11.8698
_cell_length_c                           5.9007
_cell_angle_alpha                        90
_cell_angle_beta                         90
_cell_angle_gamma                        90
_cell_volume                             696.3
_cell_formula_units_Z                    4
_space_group_IT_number                   72
_space_group_name_H-M_alt                'I b a m'
loop_
 _space_group_symop_id
 _space_group_symop_operation_xyz
 1 'x, y, z'
 2 '-x, -y, -z'
 3 '-x, -y, z'
 4 '-x, y, 1/2-z'
 5 '-x, y, 1/2+z'
 6 'x, -y, 1/2-z'
 7 'x, -y, 1/2+z'
 8 'x, y, -z'
 9 '1/2+x, 1/2+y, 1/2+z'
 10 '1/2-x, 1/2-y, 1/2-z'
 11 '1/2-x, 1/2-y, 1/2+z'
 12 '1/2-x, 1/2+y, 1-z'
 13 '1/2-x, 1/2+y, 1+z'
 14 '1/2+x, 1/2-y, 1-z'
 15 '1/2+x, 1/2-y, 1+z'
 16 '1/2+x, 1/2+y, 1/2-z'
loop_
 _atom_type_symbol
 Ni
 Eu
 Ge
loop_
 _atom_site_label
 _atom_site_type_symbol
 _atom_site_symmetry_multiplicity
 _atom_site_Wyckoff_symbol
 _atom_site_fract_x
 _atom_site_fract_y
 _atom_site_fract_z
 _atom_site_occupancy
 Ni1 Ni 8 j 0.1086 0.13428 0 1
 Eu Eu 8 j 0.26329 0.36667 0 1
 Ge3 Ge 8 j 0.34503 0.10123 0 1
 Ge2 Ge 8 g 0 0.26701 0.25 1
 Ni2 Ni 4 b 0.5 0 0.25 1
 Ge1 Ge 4 a 0 0 0.25 1


_exptl_crystal_colour                    ?
_exptl_crystal_density_meas              ?
_exptl_crystal_density_diffrn            8.04
_cell_measurement_temperature            ?
_cell_measurement_radiation              ?
_cell_measurement_reflns_used            ?
_diffrn_ambient_temperature              ?
_diffrn_measurement_device               'automatic diffractometer'
_diffrn_measurement_device_type          'Rigaku R-AXIS RAPID'
_diffrn_radiation_type                   'X-rays, Mo Ka'
_diffrn_reflns_number                    ?
_exptl_absorpt_coefficient_mu            ?
_exptl_absorpt_correction_type           ?
_computing_structure_solution
'starting values derived from related structure'                              
_refine_ls_number_parameters             ?
_refine_ls_number_reflns                 ?
_refine_ls_R_factor_gt                   0.0240
_refine_ls_wR_factor_gt                  0.0564

# End of data set 1533793

