##############################################################################
#                                                                            #
# Ge-Pd-Yb         # Yb2PdGe6 orth2                                # 1533660 #
#                                                                            #
##############################################################################
#                                                                            #
#                           Pearson's Crystal Data                           #
#      Crystal Structure Database for Inorganic Compounds (on DVD)           #
#                              Release 2023/24                               #
#                  Editors: Pierre Villars and Karin Cenzual                 #
#                                                                            #
#   Copyright (c) ASM International & Material Phases Data System (MPDS),    #
# Switzerland & National Institute for Materials Science (NIMS), Japan, 2023 #
#                   All rights reserved. Version 2023.07                     #
#                                                                            #
#   This copy of Pearson's Crystal Data is licensed to:                      #
#   Hunter College - City University of New York                             #
#                                                                            #
##############################################################################

data_1533660
_audit_creation_date                     2024-02-25
_audit_creation_method
;
Pearson's Crystal Data browser
;
#_database_code_PCD                      1533660
_database_code_PDF                       ?

# Entry summary

_chemical_formula_structural             'Yb~2~ Pd Ge~6~'
_chemical_formula_sum                    'Ge6 Pd Yb2'
_chemical_name_mineral                   ?
_chemical_compound_source                ?
_chemical_name_structure_type            Zn~0.94~La~2~Ge~6~,oS72,64
_chemical_formula_weight                 888.0

# Bibliographic data

_publ_section_title
;
A new glance on R~2~MGe~6~ (R= rare earth metal, M= another metal) compounds. An experimental and theoretical study of R~2~PdGe~6~ germanides
;
_journal_coden_ASTM                      DTARAF
_journal_name_full                       'Dalton Trans.'
_journal_year                            2017
_journal_volume                          46
_journal_page_first                      14021
_journal_page_last                       14033
_journal_language                        English
loop_
 _publ_author_name
 _publ_author_address
'Freccero R.'
;
Genoa University (UniGe)
Dipartimento di Chimica e Chimica Industriale
Genoa
Italy
;
'Solokha P.'
;
Genoa University (UniGe)
Dipartimento di Chimica e Chimica Industriale
Genoa
Italy
;
'Proserpio D.M.'
;
Milan University (UniMi)
Dipartimento di Chimica
Milan
Italy
;
'Saccone A.'
;
Genoa University (UniGe)
Dipartimento di Chimica e Chimica Industriale
Genoa
Italy
;
'De Negri S.'
;
Genoa University (UniGe)
Dipartimento di Chimica e Chimica Industriale
Genoa
Italy
;

# Standardized crystallographic data

_cell_length_a                           8.1428
_cell_length_b                           7.9807
_cell_length_c                           21.8331
_cell_angle_alpha                        90
_cell_angle_beta                         90
_cell_angle_gamma                        90
_cell_volume                             1418.8
_cell_formula_units_Z                    8
_space_group_IT_number                   64
_space_group_name_H-M_alt                'C m c e'
loop_
 _space_group_symop_id
 _space_group_symop_operation_xyz
 1 'x, y, z'
 2 '-x, 1/2-y, 1/2+z'
 3 '-x, -y, -z'
 4 '-x, 1/2+y, 1/2-z'
 5 '-x, y, z'
 6 'x, 1/2-y, 1/2+z'
 7 'x, -y, -z'
 8 'x, 1/2+y, 1/2-z'
 9 '1/2+x, 1/2+y, z'
 10 '1/2-x, 1-y, 1/2+z'
 11 '1/2-x, 1/2-y, -z'
 12 '1/2-x, 1+y, 1/2-z'
 13 '1/2-x, 1/2+y, z'
 14 '1/2+x, 1-y, 1/2+z'
 15 '1/2+x, 1/2-y, -z'
 16 '1/2+x, 1+y, 1/2-z'
loop_
 _atom_type_symbol
 Yb
 Ge
 Pd
loop_
 _atom_site_label
 _atom_site_type_symbol
 _atom_site_symmetry_multiplicity
 _atom_site_Wyckoff_symbol
 _atom_site_fract_x
 _atom_site_fract_y
 _atom_site_fract_z
 _atom_site_occupancy
 Yb1 Yb 16 g 0.24952 0.37604 0.08257 1
 Ge1 Ge 16 g 0.27568 0.12614 0.19379 1
 Ge4 Ge 8 f 0 0.12048 0.46051 1
 Pd1 Pd 8 f 0 0.12666 0.14132 1
 Ge5 Ge 8 f 0 0.13038 0.02917 1
 Ge3 Ge 8 f 0 0.34759 0.30685 1
 Ge2 Ge 8 f 0 0.40468 0.19403 1


_exptl_crystal_colour                    gray
_exptl_crystal_density_meas              ?
_exptl_crystal_density_diffrn            8.31
_cell_measurement_temperature            295(2)
_cell_measurement_radiation              'X-rays, Mo Ka'
_cell_measurement_wavelength             0.71073
_cell_measurement_reflns_used            1144
_diffrn_ambient_temperature              295(2)
_diffrn_measurement_device               'automatic diffractometer'
_diffrn_measurement_device_type          'Bruker AXS APEX II'
_diffrn_radiation_type                   'X-rays, Mo Ka'
_diffrn_radiation_wavelength             0.71073
_diffrn_reflns_number                    19224
_diffrn_reflns_theta_min                 1.87
_diffrn_reflns_theta_max                 31.59
_exptl_absorpt_coefficient_mu            53.475
_exptl_absorpt_correction_type           empirical
_computing_structure_solution            'direct methods, Fourier synthesis'
_refine_ls_number_parameters             50
_refine_ls_number_reflns                 1242
_refine_ls_R_factor_gt                   0.0231
_refine_ls_wR_factor_gt                  0.0496

# End of data set 1533660

