##############################################################################
#                                                                            #
# Dy-Ga-Ni         # DyNi3Ga9                                      # 1533816 #
#                                                                            #
##############################################################################
#                                                                            #
#                           Pearson's Crystal Data                           #
#      Crystal Structure Database for Inorganic Compounds (on DVD)           #
#                              Release 2023/24                               #
#                  Editors: Pierre Villars and Karin Cenzual                 #
#                                                                            #
#   Copyright (c) ASM International & Material Phases Data System (MPDS),    #
# Switzerland & National Institute for Materials Science (NIMS), Japan, 2023 #
#                   All rights reserved. Version 2023.07                     #
#                                                                            #
#   This copy of Pearson's Crystal Data is licensed to:                      #
#   Hunter College - City University of New York                             #
#                                                                            #
##############################################################################

data_1533816
_audit_creation_date                     2024-02-24
_audit_creation_method
;
Pearson's Crystal Data browser
;
#_database_code_PCD                      1533816
_database_code_PDF                       04-024-4828

# Entry summary

_chemical_formula_structural             'Dy Ni~3~ Ga~9~'
_chemical_formula_sum                    'Dy Ga9 Ni3'
_chemical_name_mineral                   ?
_chemical_compound_source                ?
_chemical_name_structure_type            ErNi~3~Al~9~,hR78,155
_chemical_formula_weight                 966.1

# Bibliographic data

_publ_section_title
'Magnetic properties and magnetic phase diagrams of trigonal DyNi~3~Ga~9~'    
_journal_coden_ASTM                      JUPSAU
_journal_name_full                       'J. Phys. Soc. Jpn.'
_journal_year                            2017
_journal_volume                          86
_journal_page_first                      1
_journal_page_last                       7
_journal_language                        English
loop_
 _publ_author_name
 _publ_author_address
'Ninomiya H.'
;
Nagoya Institute of Technology (Nitech)
Graduate School of Engineering
Nagoya / Aichi
Japan
;
'Matsumoto Y.'
;
Nagoya Institute of Technology (Nitech)
Graduate School of Engineering
Nagoya / Aichi
Japan
;
'Nakamura S.'
;
Tokyo University
Institute for Solid State Physics (ISSP)
Kashiwa / Chiba
Japan
;
'Kono Y.'
;
Tokyo University
Institute for Solid State Physics (ISSP)
Kashiwa / Chiba
Japan
;
'Kittaka S.'
;
Tokyo University
Institute for Solid State Physics (ISSP)
Kashiwa / Chiba
Japan
;
'Sakakibara T.'
;
Tokyo University
Institute for Solid State Physics (ISSP)
Kashiwa / Chiba
Japan
;
'Inoue K.'
;
Hiroshima University
Graduate School of Science
Higashihiroshima / Hiroshima
Japan
;
'Ohara S.'
;
Nagoya Institute of Technology (Nitech)
Graduate School of Engineering
Nagoya / Aichi
Japan
;

# Standardized crystallographic data

_cell_length_a                           7.2436
_cell_length_b                           7.2436
_cell_length_c                           27.4386
_cell_angle_alpha                        90
_cell_angle_beta                         90
_cell_angle_gamma                        120
_cell_volume                             1246.81
_cell_formula_units_Z                    6
_space_group_IT_number                   155
_space_group_name_H-M_alt                'R 3 2 h'
loop_
 _space_group_symop_id
 _space_group_symop_operation_xyz
 1 'x, y, z'
 2 '-x+y, -x, z'
 3 '-x, -x+y, -z'
 4 '-y, x-y, z'
 5 'x-y, -y, -z'
 6 'y, x, -z'
 7 '2/3+x, 1/3+y, 1/3+z'
 8 '2/3-x+y, 1/3-x, 1/3+z'
 9 '2/3-x, 1/3-x+y, 1/3-z'
 10 '2/3-y, 1/3+x-y, 1/3+z'
 11 '2/3+x-y, 1/3-y, 1/3-z'
 12 '2/3+y, 1/3+x, 1/3-z'
 13 '1/3+x, 2/3+y, 2/3+z'
 14 '1/3-x+y, 2/3-x, 2/3+z'
 15 '1/3-x, 2/3-x+y, 2/3-z'
 16 '1/3-y, 2/3+x-y, 2/3+z'
 17 '1/3+x-y, 2/3-y, 2/3-z'
 18 '1/3+y, 2/3+x, 2/3-z'
loop_
 _atom_type_symbol
 Ni
 Ga
 Dy
loop_
 _atom_site_label
 _atom_site_type_symbol
 _atom_site_symmetry_multiplicity
 _atom_site_Wyckoff_symbol
 _atom_site_fract_x
 _atom_site_fract_y
 _atom_site_fract_z
 _atom_site_occupancy
 Ni Ni 18 f 0.3335 0.006 0.08452 1
 Ga6 Ga 18 f 0.333 0.3366 0.1 1
 Ga5 Ga 9 e 0.2084 0 0.5 1
 Ga4 Ga 9 d 0.3331 0 0 1
 Ga3 Ga 6 c 0 0 0.05054 1
 Dy Dy 6 c 0 0 0.16697 1
 Ga2 Ga 6 c 0 0 0.28341 1
 Ga1 Ga 6 c 0 0 0.38495 1


_exptl_crystal_colour                    ?
_exptl_crystal_density_meas              ?
_exptl_crystal_density_diffrn            7.72
_cell_measurement_temperature            ?
_cell_measurement_radiation              ?
_cell_measurement_reflns_used            ?
_diffrn_ambient_temperature              293
_diffrn_measurement_device               'automatic diffractometer'
_diffrn_measurement_device_type          'Bruker AXS SMART APEX II'
_diffrn_radiation_type                   'X-rays, Mo Ka'
_diffrn_radiation_wavelength             0.7106
_diffrn_reflns_number                    ?
_exptl_absorpt_coefficient_mu            44.037
_exptl_absorpt_correction_type           ?
_computing_structure_solution            'direct methods, Fourier synthesis'
_refine_ls_number_parameters             ?
_refine_ls_number_reflns                 607
_refine_ls_R_factor_gt                   0.0340
_refine_ls_wR_factor_gt                  0.0391

# End of data set 1533816

