##############################################################################
#                                                                            #
# Gd-Ge-Pt         # GdPtGe2 lt                                    # 1534686 #
#                                                                            #
##############################################################################
#                                                                            #
#                           Pearson's Crystal Data                           #
#      Crystal Structure Database for Inorganic Compounds (on DVD)           #
#                              Release 2023/24                               #
#                  Editors: Pierre Villars and Karin Cenzual                 #
#                                                                            #
#   Copyright (c) ASM International & Material Phases Data System (MPDS),    #
# Switzerland & National Institute for Materials Science (NIMS), Japan, 2023 #
#                   All rights reserved. Version 2023.07                     #
#                                                                            #
#   This copy of Pearson's Crystal Data is licensed to:                      #
#   Hunter College - City University of New York                             #
#                                                                            #
##############################################################################

data_1534686
_audit_creation_date                     2024-02-24
_audit_creation_method
;
Pearson's Crystal Data browser
;
#_database_code_PCD                      1534686
_database_code_PDF                       04-025-5071

# Entry summary

_chemical_formula_structural             'Gd Pt Ge~2~'
_chemical_formula_sum                    'Gd Ge2 Pt'
_chemical_name_mineral                   ?
_chemical_compound_source                ?
_chemical_name_structure_type            YPtGe~2~,oF256,70
_chemical_formula_weight                 497.5

# Bibliographic data

_publ_section_title
'Structural phase transitions in YPtGe~2~ and GdPtGe~2~'                      
_journal_coden_ASTM                      DTARAF
_journal_name_full                       'Dalton Trans.'
_journal_year                            2018
_journal_volume                          47
_journal_page_first                      6075
_journal_page_last                       6088
_journal_language                        English
loop_
 _publ_author_name
 _publ_author_address
'Janka O.'
;
Munster University (WWU)
Institut fur Anorganische und Analytische Chemie
Munster
Germany
;
'Hoffmann R.D.'
;
Munster University (WWU)
Institut fur Anorganische und Analytische Chemie
Munster
Germany
;
'Heying B.'
;
Munster University (WWU)
Institut fur Anorganische und Analytische Chemie
Munster
Germany
;
'Pottgen R.'
;
Munster University (WWU)
Institut fur Anorganische und Analytische Chemie
Munster
Germany
;

# Standardized crystallographic data

_cell_length_a                           8.661
_cell_length_b                           17.3678
_cell_length_c                           32.56
_cell_angle_alpha                        90
_cell_angle_beta                         90
_cell_angle_gamma                        90
_cell_volume                             4897.76
_cell_formula_units_Z                    64
_space_group_IT_number                   70
_space_group_name_H-M_alt                'F d d d (origin choice 2)'
loop_
 _space_group_symop_id
 _space_group_symop_operation_xyz
 1 'x, y, z'
 2 '1/4-x, 1/4-y, z'
 3 '1/4-x, y, 1/4-z'
 4 '-x, -y, -z'
 5 '-x, -1/4+y, -1/4+z'
 6 'x, 1/4-y, 1/4-z'
 7 '-1/4+x, -y, -1/4+z'
 8 '-1/4+x, -1/4+y, -z'
 9 'x, 1/2+y, 1/2+z'
 10 '1/4-x, 3/4-y, 1/2+z'
 11 '1/4-x, 1/2+y, 3/4-z'
 12 '-x, 1/2-y, 1/2-z'
 13 '-x, 1/4+y, 1/4+z'
 14 'x, 3/4-y, 3/4-z'
 15 '-1/4+x, 1/2-y, 1/4+z'
 16 '-1/4+x, 1/4+y, 1/2-z'
 17 '1/2+x, y, 1/2+z'
 18 '3/4-x, 1/4-y, 1/2+z'
 19 '3/4-x, y, 3/4-z'
 20 '1/2-x, -y, 1/2-z'
 21 '1/2-x, -1/4+y, 1/4+z'
 22 '1/2+x, 1/4-y, 3/4-z'
 23 '1/4+x, -y, 1/4+z'
 24 '1/4+x, -1/4+y, 1/2-z'
 25 '1/2+x, 1/2+y, z'
 26 '3/4-x, 3/4-y, z'
 27 '3/4-x, 1/2+y, 1/4-z'
 28 '1/2-x, 1/2-y, -z'
 29 '1/2-x, 1/4+y, -1/4+z'
 30 '1/2+x, 3/4-y, 1/4-z'
 31 '1/4+x, 1/2-y, -1/4+z'
 32 '1/4+x, 1/4+y, -z'
loop_
 _atom_type_symbol
 Ge
 Pt
 Gd
loop_
 _atom_site_label
 _atom_site_type_symbol
 _atom_site_symmetry_multiplicity
 _atom_site_Wyckoff_symbol
 _atom_site_fract_x
 _atom_site_fract_y
 _atom_site_fract_z
 _atom_site_occupancy
 Ge1 Ge 32 h 0.10362 0.3752 0.08797 1
 Ge3 Ge 32 h 0.1251 0.05025 0.27556 1
 Pt1 Pt 32 h 0.12531 0.25073 0.05052 1
 Pt2 Pt 32 h 0.12535 0.49897 0.05084 1
 Ge5 Ge 32 h 0.1253 0.04968 0.4749 1
 Gd1 Gd 32 h 0.3747 0.00549 0.12513 1
 Gd2 Gd 32 h 0.37492 0.12507 0.02379 1
 Ge2 Ge 16 g 0.125 0.125 0.08778 1
 Ge4 Ge 16 g 0.125 0.125 0.58786 1


_exptl_crystal_colour                    gray
_exptl_crystal_density_meas              ?
_exptl_crystal_density_diffrn            10.80
_cell_measurement_temperature            ?
_cell_measurement_radiation              ?
_cell_measurement_reflns_used            ?
_diffrn_ambient_temperature              90
_diffrn_measurement_device               'automatic diffractometer'
_diffrn_measurement_device_type          'STOE IPDS II'
_diffrn_radiation_type                   'X-rays, Mo Ka'
_diffrn_radiation_wavelength             0.71073
_diffrn_reflns_number                    9518
_diffrn_reflns_theta_min                 2.5
_diffrn_reflns_theta_max                 33.9
_exptl_absorpt_coefficient_mu            86.1
_exptl_absorpt_correction_type           analytical
_computing_structure_solution            'charge flipping, Fourier synthesis'
_refine_ls_number_parameters             75
_refine_ls_number_reflns                 1966
_refine_ls_R_factor_gt                   0.0291
_refine_ls_wR_factor_gt                  0.0694

# End of data set 1534686

