##############################################################################
#                                                                            #
# Pd-Sc-Si         # Sc5Pd4Si6                                     # 1535155 #
#                                                                            #
##############################################################################
#                                                                            #
#                           Pearson's Crystal Data                           #
#      Crystal Structure Database for Inorganic Compounds (on DVD)           #
#                              Release 2023/24                               #
#                  Editors: Pierre Villars and Karin Cenzual                 #
#                                                                            #
#   Copyright (c) ASM International & Material Phases Data System (MPDS),    #
# Switzerland & National Institute for Materials Science (NIMS), Japan, 2023 #
#                   All rights reserved. Version 2023.07                     #
#                                                                            #
#   This copy of Pearson's Crystal Data is licensed to:                      #
#   Hunter College - City University of New York                             #
#                                                                            #
##############################################################################

data_1535155
_audit_creation_date                     2024-02-25
_audit_creation_method
;
Pearson's Crystal Data browser
;
#_database_code_PCD                      1535155
_database_code_PDF                       04-025-5403

# Entry summary

_chemical_formula_structural             'Sc~5~ Pd~4~ Si~6~'
_chemical_formula_sum                    'Pd4 Sc5 Si6'
_chemical_name_mineral                   ?
_chemical_compound_source                ?
_chemical_name_structure_type            Li~5~Cu~3.75~P~6~,oI30,71
_chemical_formula_weight                 818.9

# Bibliographic data

_publ_section_title
;
Sc~5~Pd~4~Si~6~ - Crystal structure and ^29^Si/^45^Sc solid-state MAS NMR spectroscopic investigations
;
_journal_coden_ASTM                      DTARAF
_journal_name_full                       'Dalton Trans.'
_journal_year                            2018
_journal_volume                          47
_journal_page_first                      13025
_journal_page_last                       13031
_journal_language                        English
loop_
 _publ_author_name
 _publ_author_address
'Schubert L.'
;
Munster University (WWU)
Institut fur Anorganische und Analytische Chemie
Munster
Germany
;
'Doerenkamp C.'
;
Sao Paulo University (USP)
Instituto de Fisica de Sao Carlos
Sao Carlos
Brazil
;
'Haverkamp S.'
;
Munster University (WWU)
Institut fur Physikalische Chemie
Munster
Germany
;
'Heletta L.'
;
Munster University (WWU)
Institut fur Anorganische und Analytische Chemie
Munster
Germany
;
'Eckert H.'
;
Sao Paulo University (USP)
Instituto de Fisica de Sao Carlos
Sao Carlos
Brazil
;
'Pottgen R.'
;
Munster University (WWU)
Institut fur Anorganische und Analytische Chemie
Munster
Germany
;

# Standardized crystallographic data

_cell_length_a                           3.9767
_cell_length_b                           9.4598
_cell_length_c                           13.159
_cell_angle_alpha                        90
_cell_angle_beta                         90
_cell_angle_gamma                        90
_cell_volume                             495
_cell_formula_units_Z                    2
_space_group_IT_number                   71
_space_group_name_H-M_alt                'I m m m'
loop_
 _space_group_symop_id
 _space_group_symop_operation_xyz
 1 'x, y, z'
 2 '-x, -y, -z'
 3 '-x, -y, z'
 4 '-x, y, -z'
 5 '-x, y, z'
 6 'x, -y, -z'
 7 'x, -y, z'
 8 'x, y, -z'
 9 '1/2+x, 1/2+y, 1/2+z'
 10 '1/2-x, 1/2-y, 1/2-z'
 11 '1/2-x, 1/2-y, 1/2+z'
 12 '1/2-x, 1/2+y, 1/2-z'
 13 '1/2-x, 1/2+y, 1/2+z'
 14 '1/2+x, 1/2-y, 1/2-z'
 15 '1/2+x, 1/2-y, 1/2+z'
 16 '1/2+x, 1/2+y, 1/2-z'
loop_
 _atom_type_symbol
 Pd
 Si
 Sc
loop_
 _atom_site_label
 _atom_site_type_symbol
 _atom_site_symmetry_multiplicity
 _atom_site_Wyckoff_symbol
 _atom_site_fract_x
 _atom_site_fract_y
 _atom_site_fract_z
 _atom_site_occupancy
 Pd Pd 8 l 0 0.26728 0.16844 1
 Si1 Si 8 l 0 0.37633 0.35364 1
 Si2 Si 4 j 0.5 0 0.41114 1
 Sc2 Sc 4 i 0 0 0.27248 1
 Sc3 Sc 4 h 0 0.1719 0.5 1
 Sc1 Sc 2 a 0 0 0 1


_exptl_crystal_colour                    ?
_exptl_crystal_density_meas              ?
_exptl_crystal_density_diffrn            5.49
_cell_measurement_temperature            ?
_cell_measurement_radiation              ?
_cell_measurement_reflns_used            ?
_diffrn_ambient_temperature              ?
_diffrn_measurement_device               'automatic diffractometer'
_diffrn_measurement_device_type          'STOE IPDS 2T'
_diffrn_radiation_type                   'X-rays, Mo Ka'
_diffrn_radiation_wavelength             0.71359
_diffrn_reflns_number                    3526
_diffrn_reflns_theta_min                 2.66
_diffrn_reflns_theta_max                 33.44
_exptl_absorpt_coefficient_mu            11.0
_exptl_absorpt_correction_type           ?
_computing_structure_solution            'direct methods, Fourier synthesis'
_refine_ls_number_parameters             29
_refine_ls_number_reflns                 578
_refine_ls_R_factor_gt                   0.0096
_refine_ls_wR_factor_gt                  0.0235

# End of data set 1535155

