##############################################################################
#                                                                            #
# Ce-Ge-Rh         # Ce3Rh4Ge4                                     # 1535394 #
#                                                                            #
##############################################################################
#                                                                            #
#                           Pearson's Crystal Data                           #
#      Crystal Structure Database for Inorganic Compounds (on DVD)           #
#                              Release 2023/24                               #
#                  Editors: Pierre Villars and Karin Cenzual                 #
#                                                                            #
#   Copyright (c) ASM International & Material Phases Data System (MPDS),    #
# Switzerland & National Institute for Materials Science (NIMS), Japan, 2023 #
#                   All rights reserved. Version 2023.07                     #
#                                                                            #
#   This copy of Pearson's Crystal Data is licensed to:                      #
#   Hunter College - City University of New York                             #
#                                                                            #
##############################################################################

data_1535394
_audit_creation_date                     2024-02-24
_audit_creation_method
;
Pearson's Crystal Data browser
;
#_database_code_PCD                      1535394
_database_code_PDF                       04-025-5567

# Entry summary

_chemical_formula_structural             'Ce~3~ Rh~4~ Ge~4~'
_chemical_formula_sum                    'Ce3 Ge4 Rh4'
_chemical_name_mineral                   ?
_chemical_compound_source                ?
_chemical_name_structure_type            Ce~3~Rh~4~Ge~4~,oP44,62
_chemical_formula_weight                 1122.3

# Bibliographic data

_publ_section_title
'Two superstructures of Ce~3~Rh~4~Ge~4~'                                      
_journal_coden_ASTM                      ZKCMAJ
_journal_name_full                       'Z. Kristallogr. - Cryst. Mater.'
_journal_year                            2018
_journal_volume                          233
_journal_page_first                      81
_journal_page_last                       95
_journal_language                        English
loop_
 _publ_author_name
 _publ_author_address
'Vosswinkel D.'
;
Munster University (WWU)
Institut fur Anorganische und Analytische Chemie
Munster
Germany
;
'Nakhl M.'
;
Lebanese University (UL)
Fanar
Lebanon
;
'Ouaini N.'
;
Kaslik Holy Spirit University (USEK)
Jounieh
Lebanon
;
'Pottgen R.'
;
Munster University (WWU)
Institut fur Anorganische und Analytische Chemie
Munster
Germany
;
'Hoffmann R.D.'
;
Munster University (WWU)
Institut fur Anorganische und Analytische Chemie
Munster
Germany
;
'Svitlyk V.'
;
European Synchrotron Radiation Facility (ESRF)
Grenoble
France
;
'Hermes W.'
;
Munster University (WWU)
Institut fur Anorganische und Analytische Chemie
Munster
Germany
;
'Greiwe M.'
;
Munster University (WWU)
Institut fur Anorganische und Analytische Chemie
Munster
Germany
;
'Niehaus O.'
;
Munster University (WWU)
Institut fur Anorganische und Analytische Chemie
Munster
Germany
;
'Chevalier B.'
;
Bordeaux I University
Institut de Chimie de la Matiere Condensee de Bordeaux (ICMCB)
Pessac
France
;
'Matar S.F.'
;
Bordeaux I University
Institut de Chimie de la Matiere Condensee de Bordeaux (ICMCB)
Pessac
France
;
'Al Alam A.F.'
;
Kaslik Holy Spirit University (USEK)
Jounieh
Lebanon
;

# Standardized crystallographic data

_cell_length_a                           8.125
_cell_length_b                           4.237
_cell_length_c                           24.971
_cell_angle_alpha                        90
_cell_angle_beta                         90
_cell_angle_gamma                        90
_cell_volume                             859.6
_cell_formula_units_Z                    4
_space_group_IT_number                   62
_space_group_name_H-M_alt                'P n m a'
loop_
 _space_group_symop_id
 _space_group_symop_operation_xyz
 1 'x, y, z'
 2 '1/2-x, -y, 1/2+z'
 3 '1/2-x, 1/2+y, 1/2+z'
 4 '-x, -y, -z'
 5 '-x, 1/2+y, -z'
 6 '1/2+x, 1/2-y, 1/2-z'
 7 '1/2+x, y, 1/2-z'
 8 'x, 1/2-y, z'
loop_
 _atom_type_symbol
 Rh
 Ce
 Ge
loop_
 _atom_site_label
 _atom_site_type_symbol
 _atom_site_symmetry_multiplicity
 _atom_site_Wyckoff_symbol
 _atom_site_fract_x
 _atom_site_fract_y
 _atom_site_fract_z
 _atom_site_occupancy
 Rh3 Rh 4 c 0.0915 0.25 0.6514 1
 Ce1 Ce 4 c 0.125 0.25 0.1043 1
 Ce3 Ce 4 c 0.125 0.25 0.3963 1
 Ge3 Ge 4 c 0.13 0.25 0.5534 1
 Rh1 Rh 4 c 0.1602 0.25 0.8484 1
 Ge2 Ge 4 c 0.369 0.25 0.2001 1
 Rh2 Rh 4 c 0.372 0.25 0.0011 1
 Rh4 Rh 4 c 0.372 0.25 0.4996 1
 Ge4 Ge 4 c 0.373 0.25 0.3001 1
 Ce2 Ce 4 c 0.375 0.25 0.7444 1
 Ge1 Ge 4 c 0.63 0.25 0.5531 1


_exptl_crystal_colour                    ?
_exptl_crystal_density_meas              ?
_exptl_crystal_density_diffrn            8.67
_cell_measurement_temperature            90
_cell_measurement_radiation              'X-rays, Mo Ka'
_cell_measurement_wavelength             0.71073
_cell_measurement_reflns_used            ?
_diffrn_ambient_temperature              90
_diffrn_measurement_device               'automatic diffractometer'
_diffrn_measurement_device_type          'STOE STADIVARI'
_diffrn_radiation_type                   'X-rays, Mo Ka'
_diffrn_radiation_wavelength             0.71073
_diffrn_reflns_number                    12406
_diffrn_reflns_theta_min                 2.6
_diffrn_reflns_theta_max                 31.9
_exptl_absorpt_coefficient_mu            36.2
_exptl_absorpt_correction_type           ?
_computing_structure_solution            'charge flipping, Fourier synthesis'
_refine_ls_number_parameters             53
_refine_ls_number_reflns                 708
_refine_ls_R_factor_gt                   0.0245
_refine_ls_wR_factor_gt                  0.0525

# End of data set 1535394

