##############################################################################
#                                                                            #
# Ce-Ge-Rh         # Ce4Rh4Ge3                                     # 1535667 #
#                                                                            #
##############################################################################
#                                                                            #
#                           Pearson's Crystal Data                           #
#      Crystal Structure Database for Inorganic Compounds (on DVD)           #
#                              Release 2023/24                               #
#                  Editors: Pierre Villars and Karin Cenzual                 #
#                                                                            #
#   Copyright (c) ASM International & Material Phases Data System (MPDS),    #
# Switzerland & National Institute for Materials Science (NIMS), Japan, 2023 #
#                   All rights reserved. Version 2023.07                     #
#                                                                            #
#   This copy of Pearson's Crystal Data is licensed to:                      #
#   Hunter College - City University of New York                             #
#                                                                            #
##############################################################################

data_1535667
_audit_creation_date                     2024-02-24
_audit_creation_method
;
Pearson's Crystal Data browser
;
#_database_code_PCD                      1535667
_database_code_PDF                       04-025-5747

# Entry summary

_chemical_formula_structural             'Ce~4~ Rh~4~ Ge~3~'
_chemical_formula_sum                    'Ce4 Ge3 Rh4'
_chemical_name_mineral                   ?
_chemical_compound_source                ?
_chemical_name_structure_type            Nd~4~Rh~4~Ge~3~,mS44,15
_chemical_formula_weight                 1189.9

# Bibliographic data

_publ_section_title
'Ferromagnetic Kondo lattice behavior in a novel compound Ce~4~Rh~4~Ge~3~'    
_journal_coden_ASTM                      IERME5
_journal_name_full                       Intermetallics
_journal_year                            2018
_journal_volume                          95
_journal_page_first                      130
_journal_page_last                       136
_journal_language                        English
loop_
 _publ_author_name
 _publ_author_address
'Kaczorowski D.'
;
Polish Academy of Sciences (PAN)
W. Trzebiatowski Institute of Low Temperature and Structure Research
Wroclaw
Poland
;
'Gribanov A.V.'
;
Moscow M.V. Lomonosov State University (MSU)
Department of Chemistry
Moscow
Russia
;
'Dunaev S.F.'
;
Moscow M.V. Lomonosov State University (MSU)
Department of Chemistry
Moscow
Russia
;
'Marushina E.V.'
;
Moscow M.V. Lomonosov State University (MSU)
Department of Chemistry
Moscow
Russia
;

# Standardized crystallographic data

_cell_length_a                           21.027
_cell_length_b                           5.7248
_cell_length_c                           7.999
_cell_angle_alpha                        90
_cell_angle_beta                         110.39
_cell_angle_gamma                        90
_cell_volume                             902.6
_cell_formula_units_Z                    4
_space_group_IT_number                   15
_space_group_name_H-M_alt                'C 1 2/c 1'
loop_
 _space_group_symop_id
 _space_group_symop_operation_xyz
 1 'x, y, z'
 2 '-x, -y, -z'
 3 '-x, y, 1/2-z'
 4 'x, -y, 1/2+z'
 5 '1/2+x, 1/2+y, z'
 6 '1/2-x, 1/2-y, -z'
 7 '1/2-x, 1/2+y, 1/2-z'
 8 '1/2+x, 1/2-y, 1/2+z'
loop_
 _atom_type_symbol
 Rh
 Ce
 Ge
loop_
 _atom_site_label
 _atom_site_type_symbol
 _atom_site_symmetry_multiplicity
 _atom_site_Wyckoff_symbol
 _atom_site_fract_x
 _atom_site_fract_y
 _atom_site_fract_z
 _atom_site_occupancy
 Rh2 Rh 8 f 0.0623 0.13288 0.01776 1
 Ce2 Ce 8 f 0.17074 0.11462 0.39976 1
 Ge2 Ge 8 f 0.17173 0.3829 0.05975 1
 Rh1 Rh 8 f 0.27915 0.14965 0.18281 1
 Ce1 Ce 8 f 0.43431 0.1487 0.3316 1
 Ge1 Ge 4 e 0 0.1492 0.25 1


_exptl_crystal_colour                    ?
_exptl_crystal_density_meas              ?
_exptl_crystal_density_diffrn            8.76
_cell_measurement_temperature            ?
_cell_measurement_radiation              ?
_cell_measurement_reflns_used            ?
_diffrn_ambient_temperature              ?
_diffrn_measurement_device               'automatic diffractometer'
_diffrn_measurement_device_type          'Enraf-Nonius CAD4'
_diffrn_radiation_type                   'X-rays, Mo Ka'
_diffrn_radiation_wavelength             0.71073
_diffrn_reflns_number                    1972
_diffrn_reflns_theta_min                 2.06
_diffrn_reflns_theta_max                 34.96
_exptl_absorpt_coefficient_mu            36.56
_exptl_absorpt_correction_type           empirical
_computing_structure_solution            'direct methods'
_refine_ls_number_parameters             52
_refine_ls_number_reflns                 1602
_refine_ls_R_factor_gt                   0.041
_refine_ls_wR_factor_gt                  0.117

# End of data set 1535667

