##############################################################################
#                                                                            #
# Co-In-Y          # Y11Co4In9                                     # 1536411 #
#                                                                            #
##############################################################################
#                                                                            #
#                           Pearson's Crystal Data                           #
#      Crystal Structure Database for Inorganic Compounds (on DVD)           #
#                              Release 2023/24                               #
#                  Editors: Pierre Villars and Karin Cenzual                 #
#                                                                            #
#   Copyright (c) ASM International & Material Phases Data System (MPDS),    #
# Switzerland & National Institute for Materials Science (NIMS), Japan, 2023 #
#                   All rights reserved. Version 2023.07                     #
#                                                                            #
#   This copy of Pearson's Crystal Data is licensed to:                      #
#   Hunter College - City University of New York                             #
#                                                                            #
##############################################################################

data_1536411
_audit_creation_date                     2024-02-24
_audit_creation_method
;
Pearson's Crystal Data browser
;
#_database_code_PCD                      1536411
_database_code_PDF                       04-026-6690

# Entry summary

_chemical_formula_structural             'Y~11~ Co~4~ In~9~'
_chemical_formula_sum                    'Co4 In9 Y11'
_chemical_name_mineral                   ?
_chemical_compound_source                ?
_chemical_name_structure_type            Nd~11~Pd~4~In~9~,oS48,65
_chemical_formula_weight                 2247.1

# Bibliographic data

_publ_section_title
'Magnetic properties of Y~11~Co~4~In~9~'                                      
_journal_coden_ASTM                      ATPLB6
_journal_name_full                       'Acta Phys. Pol., A'
_journal_year                            2019
_journal_volume                          135
_journal_page_first                      36
_journal_page_last                       40
_journal_language                        English
loop_
 _publ_author_name
 _publ_author_address
'Baran S.'
;
Jagiellonian University
M. Smoluchowski Institute of Physics
Cracow
Poland
;
'Przewoznik J.'
;
AGH University of Science and Technology
Faculty of Physics and Applied Computer Science
Cracow
Poland
;
'Kalychak Y.'
;
Lviv Ivan Franko National University
Department of Analytical Chemistry
Lviv
Ukraine
;
'Tyvanchuk Y.'
;
Lviv Ivan Franko National University
Department of Analytical Chemistry
Lviv
Ukraine
;
'Szytula A.'
;
Jagiellonian University
M. Smoluchowski Institute of Physics
Cracow
Poland
;

# Standardized crystallographic data

_cell_length_a                           14.386
_cell_length_b                           21.576
_cell_length_c                           3.6285
_cell_angle_alpha                        90
_cell_angle_beta                         90
_cell_angle_gamma                        90
_cell_volume                             1126.3
_cell_formula_units_Z                    2
_space_group_IT_number                   65
_space_group_name_H-M_alt                'C m m m'
loop_
 _space_group_symop_id
 _space_group_symop_operation_xyz
 1 'x, y, z'
 2 '-x, -y, -z'
 3 '-x, -y, z'
 4 '-x, y, -z'
 5 '-x, y, z'
 6 'x, -y, -z'
 7 'x, -y, z'
 8 'x, y, -z'
 9 '1/2+x, 1/2+y, z'
 10 '1/2-x, 1/2-y, -z'
 11 '1/2-x, 1/2-y, z'
 12 '1/2-x, 1/2+y, -z'
 13 '1/2-x, 1/2+y, z'
 14 '1/2+x, 1/2-y, -z'
 15 '1/2+x, 1/2-y, z'
 16 '1/2+x, 1/2+y, -z'
loop_
 _atom_type_symbol
 In
 Co
 Y
loop_
 _atom_site_label
 _atom_site_type_symbol
 _atom_site_symmetry_multiplicity
 _atom_site_Wyckoff_symbol
 _atom_site_fract_x
 _atom_site_fract_y
 _atom_site_fract_z
 _atom_site_occupancy
 In1 In 8 q 0.1036 0.2644 0.5 1
 In2 In 8 q 0.1493 0.0717 0.5 1
 Co Co 8 q 0.3483 0.1012 0.5 1
 Y1 Y 8 p 0.2475 0.1683 0 1
 Y2 Y 4 i 0 0.1613 0 1
 Y3 Y 4 i 0 0.3748 0 1
 Y4 Y 4 g 0.3123 0 0 1
 In3 In 2 c 0.5 0 0.5 1
 Y5 Y 2 a 0 0 0 1


_exptl_crystal_colour                    ?
_exptl_crystal_density_meas              ?
_exptl_crystal_density_diffrn            6.63
_cell_measurement_temperature            ?
_cell_measurement_radiation              ?
_cell_measurement_reflns_used            ?
_diffrn_ambient_temperature              ?
_diffrn_measurement_device               'automatic diffractometer'
_diffrn_measurement_device_type
;
PANalytical X'Pert PRO MPD
;
_diffrn_radiation_type                   'X-rays, Cu Ka'
_diffrn_reflns_number                    ?
_exptl_absorpt_coefficient_mu            ?
_exptl_absorpt_correction_type           ?
_computing_structure_solution            'starting values from the literature'
_refine_ls_number_parameters             ?
_refine_ls_number_reflns                 ?
_refine_ls_R_factor_gt                   0.0376
_refine_ls_wR_factor_gt                  ?
_pd_proc_ls_proof_R_factor               ?
_pd_proc_ls_proof_wR_factor              ?
_refine_ls_R_I_factor                    0.0672

# End of data set 1536411

