##############################################################################
#                                                                            #
# Co-La-Sn         # La3Co4Sn13 lt                                 # 1537554 #
#                                                                            #
##############################################################################
#                                                                            #
#                           Pearson's Crystal Data                           #
#      Crystal Structure Database for Inorganic Compounds (on DVD)           #
#                              Release 2023/24                               #
#                  Editors: Pierre Villars and Karin Cenzual                 #
#                                                                            #
#   Copyright (c) ASM International & Material Phases Data System (MPDS),    #
# Switzerland & National Institute for Materials Science (NIMS), Japan, 2023 #
#                   All rights reserved. Version 2023.07                     #
#                                                                            #
#   This copy of Pearson's Crystal Data is licensed to:                      #
#   Hunter College - City University of New York                             #
#                                                                            #
##############################################################################

data_1537554
_audit_creation_date                     2024-02-24
_audit_creation_method
;
Pearson's Crystal Data browser
;
#_database_code_PCD                      1537554
_database_code_PDF                       04-027-6737

# Entry summary

_chemical_formula_structural             'La~3~ Co~4~ Sn~13~'
_chemical_formula_sum                    'Co4 La3 Sn13'
_chemical_name_mineral                   ?
_chemical_compound_source                ?
_chemical_name_structure_type            Ca~3~Pt~4.1~Ge~12.6~,cI320,199
_chemical_formula_weight                 2195.7

# Bibliographic data

_publ_section_title
;
Second-order charge-density-wave transition in single crystals of La~3~Co~4~Sn~13~
;
_journal_coden_ASTM                      PRMHBS
_journal_name_full                       'Phys. Rev. Mater.'
_journal_year                            2019
_journal_volume                          3
_journal_page_first                      1
_journal_page_last                       5
_journal_language                        English
loop_
 _publ_author_name
 _publ_author_address
'Welsch J.'
;
Bayreuth University
Laboratorium fur Kristallographie
Bayreuth
Germany
;
'Paulmann C.'
;
Hamburg University (UHH)
Mineralogisch-Petrographisches Institut (MPI)
Hamburg
Germany
;
'Ramakrishnan S.'
;
Tata Institute of Fundamental Research (TIFR)
Department of Condensed Matter Physics and Materials Science
Mumbai / Maharashtra
India
;
'Ramakrishnan S.'
;
Bayreuth University
Laboratorium fur Kristallographie
Bayreuth
Germany
;
'Eisele C.'
;
Bayreuth University
Laboratorium fur Kristallographie
Bayreuth
Germany
;
'Van Well N.'
;
Bayreuth University
Laboratorium fur Kristallographie
Bayreuth
Germany
;
'Schonleber A.'
;
Bayreuth University
Laboratorium fur Kristallographie
Bayreuth
Germany
;
'Van Smaalen S.'
;
Bayreuth University
Laboratorium fur Kristallographie
Bayreuth
Germany
;
'Matteppanavar S.'
;
Tata Institute of Fundamental Research (TIFR)
Department of Condensed Matter Physics and Materials Science
Mumbai / Maharashtra
India
;
'Thamizhavel A.'
;
Tata Institute of Fundamental Research (TIFR)
Department of Condensed Matter Physics and Materials Science
Mumbai / Maharashtra
India
;
'Tolkiehn M.'
;
German Electron Synchrotron (DESY)
Hamburg
Germany
;

# Standardized crystallographic data

_cell_length_a                           19.2333
_cell_length_b                           19.2333
_cell_length_c                           19.2333
_cell_angle_alpha                        90
_cell_angle_beta                         90
_cell_angle_gamma                        90
_cell_volume                             7114.78
_cell_formula_units_Z                    16
_space_group_IT_number                   199
_space_group_name_H-M_alt                'I 21 3'
loop_
 _space_group_symop_id
 _space_group_symop_operation_xyz
 1 'x, y, z'
 2 '1/2-x, y, -z'
 3 '-x, 1/2-y, z'
 4 '1/2-y, z, -x'
 5 '-y, 1/2-z, x'
 6 '1/2-z, x, -y'
 7 '-z, 1/2-x, y'
 8 'x, -y, 1/2-z'
 9 'y, -z, 1/2-x'
 10 'y, z, x'
 11 'z, -x, 1/2-y'
 12 'z, x, y'
 13 '1/2+x, 1/2+y, 1/2+z'
 14 '1-x, 1/2+y, 1/2-z'
 15 '1/2-x, 1-y, 1/2+z'
 16 '1-y, 1/2+z, 1/2-x'
 17 '1/2-y, 1-z, 1/2+x'
 18 '1-z, 1/2+x, 1/2-y'
 19 '1/2-z, 1-x, 1/2+y'
 20 '1/2+x, 1/2-y, 1-z'
 21 '1/2+y, 1/2-z, 1-x'
 22 '1/2+y, 1/2+z, 1/2+x'
 23 '1/2+z, 1/2-x, 1-y'
 24 '1/2+z, 1/2+x, 1/2+y'
loop_
 _atom_type_symbol
 La
 Sn
 Co
loop_
 _atom_site_label
 _atom_site_type_symbol
 _atom_site_symmetry_multiplicity
 _atom_site_Wyckoff_symbol
 _atom_site_fract_x
 _atom_site_fract_y
 _atom_site_fract_z
 _atom_site_occupancy
 La1a La 24 c 0.00079 0.37516 0.25012 1
 Sn2_1c Sn 24 c 0.0007 0.14934 0.57811 1
 Sn2_1b Sn 24 c 0.0005 0.34092 0.41867 1
 Sn2_1a Sn 24 c 0.001 0.15249 0.07955 1
 Sn2_1d Sn 24 c 0.07583 0.5007 0.11482 1
 Sn2_2b Sn 24 c 0.09856 0.2505 0.17241 1
 Sn2_2d Sn 24 c 0.10918 0.2494 0.32576 1
 La1b La 24 c 0.1254 0.25081 0.50025 1
 Co1a Co 24 c 0.1239 0.1228 0.3766 1
 Co1c Co 24 c 0.1243 0.3744 0.3745 1
 Sn2_2a Sn 24 c 0.16904 0.41096 0.24981 1
 Sn2_2c Sn 24 c 0.2501 0.32796 0.40159 1
 Sn1a Sn 8 a -0.00101 -0.00101 -0.00101 1
 Co1d Co 8 a 0.1248 0.1248 0.1248 1
 Sn1b Sn 8 a 0.25006 0.25006 0.25006 1
 Co1b Co 8 a 0.377 0.377 0.377 1


_exptl_crystal_colour                    ?
_exptl_crystal_density_meas              ?
_exptl_crystal_density_diffrn            8.20
_cell_measurement_temperature            ?
_cell_measurement_radiation              ?
_cell_measurement_reflns_used            ?
_diffrn_ambient_temperature              25
_diffrn_measurement_device               'automatic diffractometer'
_diffrn_measurement_device_type
'Germany, Hamburg, Deutsches Elektronen-Synchrotron DESY, PETRA III reactor'  
_diffrn_radiation_type                   'X-rays, synchrotron'
_diffrn_radiation_wavelength             0.559241
_diffrn_reflns_number                    38433
_exptl_absorpt_coefficient_mu            14.774
_exptl_absorpt_correction_type           analytical
_computing_structure_solution            'starting values from the literature'
_refine_ls_number_parameters             122
_refine_ls_number_reflns                 2736
_refine_ls_R_factor_gt                   0.0522
_refine_ls_wR_factor_gt                  0.0659

# End of data set 1537554

