##############################################################################
#                                                                            #
# Ga-Ir-Tb         # Tb2Ir3Ga9                                     # 1537375 #
#                                                                            #
##############################################################################
#                                                                            #
#                           Pearson's Crystal Data                           #
#      Crystal Structure Database for Inorganic Compounds (on DVD)           #
#                              Release 2023/24                               #
#                  Editors: Pierre Villars and Karin Cenzual                 #
#                                                                            #
#   Copyright (c) ASM International & Material Phases Data System (MPDS),    #
# Switzerland & National Institute for Materials Science (NIMS), Japan, 2023 #
#                   All rights reserved. Version 2023.07                     #
#                                                                            #
#   This copy of Pearson's Crystal Data is licensed to:                      #
#   Hunter College - City University of New York                             #
#                                                                            #
##############################################################################

data_1537375
_audit_creation_date                     2024-02-24
_audit_creation_method
;
Pearson's Crystal Data browser
;
#_database_code_PCD                      1537375
_database_code_PDF                       04-027-6710

# Entry summary

_chemical_formula_structural             'Tb~2~ Ir~3~ Ga~9~'
_chemical_formula_sum                    'Ga9 Ir3 Tb2'
_chemical_name_mineral                   ?
_chemical_compound_source                ?
_chemical_name_structure_type            Y~2~Co~3~Ga~9~,oS56,63
_chemical_formula_weight                 1522.0

# Bibliographic data

_publ_section_title
;
Steplike metamagnetic transitions in a honeycomb lattice antiferromagnet Tb~2~Ir~3~Ga~9~
;
_journal_coden_ASTM                      PRMHBS
_journal_name_full                       'Phys. Rev. Mater.'
_journal_year                            2019
_journal_volume                          3
_journal_page_first                      1
_journal_page_last                       10
_journal_language                        English
loop_
 _publ_author_name
 _publ_author_address
'Khan M.A.'
;
Argonne National Laboratory
Materials Science Division
Argonne
U.S.A. Illinois
;
'Mitchell J.F.'
;
Argonne National Laboratory
Materials Science Division
Argonne
U.S.A. Illinois
;
'Zhang Q.'
;
Oak Ridge National Laboratory (ORNL)
Neutron Scattering Division
Oak Ridge
U.S.A. Tennessee
;
'Bao J.K.'
;
Argonne National Laboratory
Materials Science Division
Argonne
U.S.A. Illinois
;
'Fishman R.S.'
;
Oak Ridge National Laboratory (ORNL)
Materials Science and Technology Division
Oak Ridge
U.S.A. Tennessee
;
'Botana A.S.'
;
Arizona State University (ASU)
Department of Physics
Tempe
U.S.A. Arizona
;
'Choi Y.'
;
Argonne National Laboratory
Advanced Photon Source
Argonne
U.S.A. Illinois
;
'Fabbris G.'
;
Argonne National Laboratory
Advanced Photon Source
Argonne
U.S.A. Illinois
;
'Haskel D.'
;
Argonne National Laboratory
Advanced Photon Source
Argonne
U.S.A. Illinois
;
'Singleton J.'
;
Los Alamos National Laboratory (LANL)
National High Magnetic Field Laboratory
Los Alamos
U.S.A. New Mexico
;

# Standardized crystallographic data

_cell_length_a                           12.986
_cell_length_b                           7.5325
_cell_length_c                           9.4349
_cell_angle_alpha                        90
_cell_angle_beta                         90
_cell_angle_gamma                        90
_cell_volume                             922.9
_cell_formula_units_Z                    4
_space_group_IT_number                   63
_space_group_name_H-M_alt                'C m c m'
loop_
 _space_group_symop_id
 _space_group_symop_operation_xyz
 1 'x, y, z'
 2 '-x, -y, -z'
 3 '-x, -y, 1/2+z'
 4 '-x, y, 1/2-z'
 5 '-x, y, z'
 6 'x, -y, -z'
 7 'x, -y, 1/2+z'
 8 'x, y, 1/2-z'
 9 '1/2+x, 1/2+y, z'
 10 '1/2-x, 1/2-y, -z'
 11 '1/2-x, 1/2-y, 1/2+z'
 12 '1/2-x, 1/2+y, 1/2-z'
 13 '1/2-x, 1/2+y, z'
 14 '1/2+x, 1/2-y, -z'
 15 '1/2+x, 1/2-y, 1/2+z'
 16 '1/2+x, 1/2+y, 1/2-z'
loop_
 _atom_type_symbol
 Ga
 Tb
 Ir
loop_
 _atom_site_label
 _atom_site_type_symbol
 _atom_site_symmetry_multiplicity
 _atom_site_Wyckoff_symbol
 _atom_site_fract_x
 _atom_site_fract_y
 _atom_site_fract_z
 _atom_site_occupancy
 Ga1 Ga 16 h 0.1671 0.1677 0.0787 1
 Ga2 Ga 8 g 0.1037 0.4427 0.25 1
 Tb Tb 8 g 0.336 0.3336 0.25 1
 Ga3 Ga 8 f 0 0.3331 0.5633 1
 Ir1 Ir 8 e 0.3283 0 0 1
 Ga4 Ga 4 c 0 0.1293 0.25 1
 Ir2 Ir 4 a 0 0 0 1


_exptl_crystal_colour                    black
_exptl_crystal_density_meas              ?
_exptl_crystal_density_diffrn            10.95
_cell_measurement_temperature            ?
_cell_measurement_radiation              ?
_cell_measurement_reflns_used            ?
_diffrn_ambient_temperature              293(2)
_diffrn_measurement_device               'automatic diffractometer'
_diffrn_measurement_device_type          'STOE IPDS 2T'
_diffrn_radiation_type                   'X-rays, Mo Ka'
_diffrn_radiation_wavelength             0.71073
_diffrn_reflns_number                    5326
_diffrn_reflns_theta_min                 3.13
_diffrn_reflns_theta_max                 31.84
_exptl_absorpt_coefficient_mu            83.867
_exptl_absorpt_correction_type           empirical
_computing_structure_solution            'direct methods, Fourier synthesis'
_refine_ls_number_parameters             42
_refine_ls_number_reflns                 857
_refine_ls_R_factor_gt                   0.0385
_refine_ls_wR_factor_gt                  0.1006

# End of data set 1537375

