##############################################################################
#                                                                            #
# Ni-Si-Yb         # YbNi1.8Si3.2                                  # 1538773 #
#                                                                            #
##############################################################################
#                                                                            #
#                           Pearson's Crystal Data                           #
#      Crystal Structure Database for Inorganic Compounds (on DVD)           #
#                              Release 2023/24                               #
#                  Editors: Pierre Villars and Karin Cenzual                 #
#                                                                            #
#   Copyright (c) ASM International & Material Phases Data System (MPDS),    #
# Switzerland & National Institute for Materials Science (NIMS), Japan, 2023 #
#                   All rights reserved. Version 2023.07                     #
#                                                                            #
#   This copy of Pearson's Crystal Data is licensed to:                      #
#   Hunter College - City University of New York                             #
#                                                                            #
##############################################################################

data_1538773
_audit_creation_date                     2024-02-25
_audit_creation_method
;
Pearson's Crystal Data browser
;
#_database_code_PCD                      1538773
_database_code_PDF                       04-027-7328

# Entry summary

_chemical_formula_structural             'Yb Ni~1.8~ Si~3.2~'
_chemical_formula_sum                    'Ni1.74 Si3.21 Yb'
_chemical_name_mineral                   ?
_chemical_compound_source                ?
_chemical_name_structure_type
UNi(Ni~0.5~Si~0.5~)~2~Si~2~,tI24,139                                          
_chemical_formula_weight                 368.6

# Bibliographic data

_publ_section_title
'Heavy fermion state of YbNi~2~Si~3~ without local inversion symmetry'        
_journal_coden_ASTM                      JUPSAU
_journal_name_full                       'J. Phys. Soc. Jpn.'
_journal_year                            2020
_journal_volume                          89
_journal_page_first                      1
_journal_page_last                       5
_journal_language                        English
loop_
 _publ_author_name
 _publ_author_address
'Nakamura S.'
;
Nagoya Institute of Technology (Nitech)
Nagoya / Aichi
Japan
;
'Yamashita M.'
;
Tokyo University
Institute for Solid State Physics (ISSP)
Kashiwa / Chiba
Japan
;
'Kittaka S.'
;
Tokyo University
Institute for Solid State Physics (ISSP)
Kashiwa / Chiba
Japan
;
'Sakakibara T.'
;
Tokyo University
Institute for Solid State Physics (ISSP)
Kashiwa / Chiba
Japan
;
'Ohara S.'
;
Nagoya Institute of Technology (Nitech)
Nagoya / Aichi
Japan
;
'Hyodo K.'
;
Nagoya Institute of Technology (Nitech)
Nagoya / Aichi
Japan
;
'Matsumoto Y.'
;
Nagoya Institute of Technology (Nitech)
Nagoya / Aichi
Japan
;
'Haga Y.'
;
Japan Atomic Energy Agency (JAEA)
Tokai / Ibaraki
Japan
;
'Sato H.'
;
Hiroshima University
Department of Quantum Matter
Higashihiroshima / Hiroshima
Japan
;
'Ueda S.'
;
National Institute for Materials Science (NIMS)
Beamline Station at SPring-8
Sayo / Hyogo
Japan
;
'Mimura K.'
;
Osaka Prefecture University (OPU)
Graduate School of Engineering
Sakai / Osaka
Japan
;
'Saiki K.'
;
Tokyo University
Institute for Solid State Physics (ISSP)
Kashiwa / Chiba
Japan
;
'Iso K.'
;
Tokyo University
Institute for Solid State Physics (ISSP)
Kashiwa / Chiba
Japan
;

# Standardized crystallographic data

_cell_length_a                           3.8504
_cell_length_b                           3.8504
_cell_length_c                           24.0009
_cell_angle_alpha                        90
_cell_angle_beta                         90
_cell_angle_gamma                        90
_cell_volume                             355.8
_cell_formula_units_Z                    4
_space_group_IT_number                   139
_space_group_name_H-M_alt                'I 4/m m m'
loop_
 _space_group_symop_id
 _space_group_symop_operation_xyz
 1 'x, y, z'
 2 '-x, -y, -z'
 3 '-x, -y, z'
 4 '-x, y, -z'
 5 '-x, y, z'
 6 '-y, -x, -z'
 7 '-y, -x, z'
 8 '-y, x, -z'
 9 '-y, x, z'
 10 'x, -y, -z'
 11 'x, -y, z'
 12 'x, y, -z'
 13 'y, -x, -z'
 14 'y, -x, z'
 15 'y, x, -z'
 16 'y, x, z'
 17 '1/2+x, 1/2+y, 1/2+z'
 18 '1/2-x, 1/2-y, 1/2-z'
 19 '1/2-x, 1/2-y, 1/2+z'
 20 '1/2-x, 1/2+y, 1/2-z'
 21 '1/2-x, 1/2+y, 1/2+z'
 22 '1/2-y, 1/2-x, 1/2-z'
 23 '1/2-y, 1/2-x, 1/2+z'
 24 '1/2-y, 1/2+x, 1/2-z'
 25 '1/2-y, 1/2+x, 1/2+z'
 26 '1/2+x, 1/2-y, 1/2-z'
 27 '1/2+x, 1/2-y, 1/2+z'
 28 '1/2+x, 1/2+y, 1/2-z'
 29 '1/2+y, 1/2-x, 1/2-z'
 30 '1/2+y, 1/2-x, 1/2+z'
 31 '1/2+y, 1/2+x, 1/2-z'
 32 '1/2+y, 1/2+x, 1/2+z'
loop_
 _atom_type_symbol
 Si
 Ni
 Yb
loop_
 _atom_site_label
 _atom_site_type_symbol
 _atom_site_symmetry_multiplicity
 _atom_site_Wyckoff_symbol
 _atom_site_fract_x
 _atom_site_fract_y
 _atom_site_fract_z
 _atom_site_occupancy
 Si1 Si 8 g 0 0.5 0.0488 1
 Ni Ni 4 e 0 0 0.09782 1
 Si2 Si 4 e 0 0 0.1922 1
 Yb Yb 4 e 0 0 0.35194 1
 Ni1 Ni 4 d 0 0.5 0.25 0.741
 Si2 Si 4 d 0 0.5 0.25 0.209


_exptl_crystal_colour                    ?
_exptl_crystal_density_meas              ?
_exptl_crystal_density_diffrn            6.88
_cell_measurement_temperature            ?
_cell_measurement_radiation              ?
_cell_measurement_reflns_used            ?
_diffrn_ambient_temperature              ?
_diffrn_measurement_device               'automatic diffractometer'
_diffrn_measurement_device_type          ?
_diffrn_radiation_type                   'X-rays, Mo Ka'
_diffrn_reflns_number                    ?
_exptl_absorpt_coefficient_mu            ?
_exptl_absorpt_correction_type           ?
_computing_structure_solution            'direct methods, Fourier synthesis'
_refine_ls_number_parameters             ?
_refine_ls_number_reflns                 ?
_refine_ls_R_factor_gt                   ?
_refine_ls_wR_factor_gt                  ?

# End of data set 1538773

