##############################################################################
#                                                                            #
# Lu-Ni-Si         # Lu3Ni11.74Si4                                 # 1538609 #
#                                                                            #
##############################################################################
#                                                                            #
#                           Pearson's Crystal Data                           #
#      Crystal Structure Database for Inorganic Compounds (on DVD)           #
#                              Release 2023/24                               #
#                  Editors: Pierre Villars and Karin Cenzual                 #
#                                                                            #
#   Copyright (c) ASM International & Material Phases Data System (MPDS),    #
# Switzerland & National Institute for Materials Science (NIMS), Japan, 2023 #
#                   All rights reserved. Version 2023.07                     #
#                                                                            #
#   This copy of Pearson's Crystal Data is licensed to:                      #
#   Hunter College - City University of New York                             #
#                                                                            #
##############################################################################

data_1538609
_audit_creation_date                     2024-02-25
_audit_creation_method
;
Pearson's Crystal Data browser
;
#_database_code_PCD                      1538609
_database_code_PDF                       04-027-7235

# Entry summary

_chemical_formula_structural             'Lu~3~ Ni~11.74~ Si~4~'
_chemical_formula_sum                    'Lu3 Ni11.73 Si4'
_chemical_name_mineral                   ?
_chemical_compound_source                ?
_chemical_name_structure_type            Sc~3~Ni~11~Ge~4~,hP38,194
_chemical_formula_weight                 1326.3

# Bibliographic data

_publ_section_title
'Crystal structure of the new silicide Lu~3~Ni~11.74(2)~Si~4~'                
_journal_coden_ASTM                      UKZUAZ
_journal_name_full                       'Ukr. Khim. Zh. (UKr. Ed.)'
_journal_year                            2020
_journal_volume                          86
_journal_issue                           5
_journal_page_first                      3
_journal_page_last                       12
_journal_language                        English
loop_
 _publ_author_name
 _publ_author_address
'Belan B.'
;
Lviv Ivan Franko National University
Lviv
Ukraine
;
'Manyako M.'
;
Lviv Ivan Franko National University
Lviv
Ukraine
;
'Dzevenko M.'
;
Lviv Ivan Franko National University
Lviv
Ukraine
;
'Kowalska D.'
;
Polish Academy of Sciences (PAN)
W. Trzebiatowski Institute of Low Temperature and Structure Research
Wroclaw
Poland
;
'Gladyshevskii R.'
;
Lviv Ivan Franko National University
Lviv
Ukraine
;

# Standardized crystallographic data

_cell_length_a                           8.0985
_cell_length_b                           8.0985
_cell_length_c                           8.55
_cell_angle_alpha                        90
_cell_angle_beta                         90
_cell_angle_gamma                        120
_cell_volume                             485.6
_cell_formula_units_Z                    2
_space_group_IT_number                   194
_space_group_name_H-M_alt                'P 63/m m c'
loop_
 _space_group_symop_id
 _space_group_symop_operation_xyz
 1 'x, y, z'
 2 '-x+y, -x, 1/2-z'
 3 '-x+y, -x, z'
 4 '-x+y, y, 1/2-z'
 5 '-x+y, y, z'
 6 '-x, -x+y, -z'
 7 '-x, -x+y, 1/2+z'
 8 '-x, -y, -z'
 9 '-x, -y, 1/2+z'
 10 '-y, -x, 1/2-z'
 11 '-y, -x, z'
 12 '-y, x-y, 1/2-z'
 13 '-y, x-y, z'
 14 'x, x-y, 1/2-z'
 15 'x, x-y, z'
 16 'x, y, 1/2-z'
 17 'x-y, -y, -z'
 18 'x-y, -y, 1/2+z'
 19 'x-y, x, -z'
 20 'x-y, x, 1/2+z'
 21 'y, -x+y, -z'
 22 'y, -x+y, 1/2+z'
 23 'y, x, -z'
 24 'y, x, 1/2+z'
loop_
 _atom_type_symbol
 Ni
 Lu
 Si
loop_
 _atom_site_label
 _atom_site_type_symbol
 _atom_site_symmetry_multiplicity
 _atom_site_Wyckoff_symbol
 _atom_site_fract_x
 _atom_site_fract_y
 _atom_site_fract_z
 _atom_site_occupancy
 Ni1 Ni 12 k 0.16195 0.3239 0.58555 1
 Lu Lu 6 h 0.18984 0.37968 0.25 1
 Ni2 Ni 6 h 0.56331 0.12662 0.25 1
 Si1 Si 6 g 0.5 0 0 1
 Ni3 Ni 4 f 0.333333 0.666667 0.0016 1
 Ni4 Ni 2 b 0 0 0.25 0.735
 Si2 Si 2 a 0 0 0 1


_exptl_crystal_colour                    ?
_exptl_crystal_density_meas              ?
_exptl_crystal_density_diffrn            9.07
_cell_measurement_temperature            ?
_cell_measurement_radiation              ?
_cell_measurement_reflns_used            ?
_diffrn_ambient_temperature              ?
_diffrn_measurement_device               'automatic diffractometer'
_diffrn_measurement_device_type          'Kuma Diffraction'
_diffrn_radiation_type                   'X-rays, Mo Ka'
_diffrn_reflns_number                    5249
_diffrn_reflns_theta_min                 2.9
_diffrn_reflns_theta_max                 29.76
_exptl_absorpt_coefficient_mu            52.61
_exptl_absorpt_correction_type           ?
_computing_structure_solution            'starting values from the literature'
_refine_ls_number_parameters             ?
_refine_ls_number_reflns                 244
_refine_ls_R_factor_gt                   0.0244
_refine_ls_wR_factor_gt                  0.0430

# End of data set 1538609

