##############################################################################
#                                                                            #
# In-Pd-Sc         # Sc25Pd6.82In1.18                              # 1538762 #
#                                                                            #
##############################################################################
#                                                                            #
#                           Pearson's Crystal Data                           #
#      Crystal Structure Database for Inorganic Compounds (on DVD)           #
#                              Release 2023/24                               #
#                  Editors: Pierre Villars and Karin Cenzual                 #
#                                                                            #
#   Copyright (c) ASM International & Material Phases Data System (MPDS),    #
# Switzerland & National Institute for Materials Science (NIMS), Japan, 2023 #
#                   All rights reserved. Version 2023.07                     #
#                                                                            #
#   This copy of Pearson's Crystal Data is licensed to:                      #
#   Hunter College - City University of New York                             #
#                                                                            #
##############################################################################

data_1538762
_audit_creation_date                     2024-02-25
_audit_creation_method
;
Pearson's Crystal Data browser
;
#_database_code_PCD                      1538762
_database_code_PDF                       04-027-7320

# Entry summary

_chemical_formula_structural             'Sc~25~ Pd~6.82~ In~1.18~'
_chemical_formula_sum                    'In1.17 Pd6.82 Sc25'
_chemical_name_mineral                   ?
_chemical_compound_source                ?
_chemical_name_structure_type
Mg~19~(Mg~0.9~Ag~0.1~)~7~Ag~7~,cF264,202                                      
_chemical_formula_weight                 1985.2

# Bibliographic data

_publ_section_title
'Scandium-rich ternary coloring variants of the cubic Ag~7+x~Mg~26-x~ type'   
_journal_coden_ASTM                      MOCMB7
_journal_name_full                       'Monatsh. Chem.'
_journal_year                            2020
_journal_volume                          151
_journal_page_first                      1673
_journal_page_last                       1679
_journal_language                        English
loop_
 _publ_author_name
 _publ_author_address
'Gulay N.L.'
;
Munster University (WWU)
Institut fur Anorganische und Analytische Chemie
Munster
Germany
;
'Kalychak Y.M.'
;
Lviv Ivan Franko National University
Department of Analytical Chemistry
Lviv
Ukraine
;
'Reimann M.K.'
;
Munster University (WWU)
Institut fur Anorganische und Analytische Chemie
Munster
Germany
;
'Paulsen C.'
;
Munster University (WWU)
Institut fur Anorganische und Analytische Chemie
Munster
Germany
;
'Kosters J.'
;
Munster University (WWU)
Institut fur Anorganische und Analytische Chemie
Munster
Germany
;
'Pottgen R.'
;
Munster University (WWU)
Institut fur Anorganische und Analytische Chemie
Munster
Germany
;

# Standardized crystallographic data

_cell_length_a                           17.8446
_cell_length_b                           17.8446
_cell_length_c                           17.8446
_cell_angle_alpha                        90
_cell_angle_beta                         90
_cell_angle_gamma                        90
_cell_volume                             5682.3
_cell_formula_units_Z                    8
_space_group_IT_number                   202
_space_group_name_H-M_alt                'F m -3'
loop_
 _space_group_symop_id
 _space_group_symop_operation_xyz
 1 'x, y, z'
 2 '-x, -y, -z'
 3 '-x, -y, z'
 4 '-x, y, -z'
 5 '-x, y, z'
 6 '-y, -z, -x'
 7 '-y, -z, x'
 8 '-y, z, -x'
 9 '-y, z, x'
 10 '-z, -x, -y'
 11 '-z, -x, y'
 12 '-z, x, -y'
 13 '-z, x, y'
 14 'x, -y, -z'
 15 'x, -y, z'
 16 'x, y, -z'
 17 'y, -z, -x'
 18 'y, -z, x'
 19 'y, z, -x'
 20 'y, z, x'
 21 'z, -x, -y'
 22 'z, -x, y'
 23 'z, x, -y'
 24 'z, x, y'
 25 'x, 1/2+y, 1/2+z'
 26 '-x, 1/2-y, 1/2-z'
 27 '-x, 1/2-y, 1/2+z'
 28 '-x, 1/2+y, 1/2-z'
 29 '-x, 1/2+y, 1/2+z'
 30 '-y, 1/2-z, 1/2-x'
 31 '-y, 1/2-z, 1/2+x'
 32 '-y, 1/2+z, 1/2-x'
 33 '-y, 1/2+z, 1/2+x'
 34 '-z, 1/2-x, 1/2-y'
 35 '-z, 1/2-x, 1/2+y'
 36 '-z, 1/2+x, 1/2-y'
 37 '-z, 1/2+x, 1/2+y'
 38 'x, 1/2-y, 1/2-z'
 39 'x, 1/2-y, 1/2+z'
 40 'x, 1/2+y, 1/2-z'
 41 'y, 1/2-z, 1/2-x'
 42 'y, 1/2-z, 1/2+x'
 43 'y, 1/2+z, 1/2-x'
 44 'y, 1/2+z, 1/2+x'
 45 'z, 1/2-x, 1/2-y'
 46 'z, 1/2-x, 1/2+y'
 47 'z, 1/2+x, 1/2-y'
 48 'z, 1/2+x, 1/2+y'
 49 '1/2+x, y, 1/2+z'
 50 '1/2-x, -y, 1/2-z'
 51 '1/2-x, -y, 1/2+z'
 52 '1/2-x, y, 1/2-z'
 53 '1/2-x, y, 1/2+z'
 54 '1/2-y, -z, 1/2-x'
 55 '1/2-y, -z, 1/2+x'
 56 '1/2-y, z, 1/2-x'
 57 '1/2-y, z, 1/2+x'
 58 '1/2-z, -x, 1/2-y'
 59 '1/2-z, -x, 1/2+y'
 60 '1/2-z, x, 1/2-y'
 61 '1/2-z, x, 1/2+y'
 62 '1/2+x, -y, 1/2-z'
 63 '1/2+x, -y, 1/2+z'
 64 '1/2+x, y, 1/2-z'
 65 '1/2+y, -z, 1/2-x'
 66 '1/2+y, -z, 1/2+x'
 67 '1/2+y, z, 1/2-x'
 68 '1/2+y, z, 1/2+x'
 69 '1/2+z, -x, 1/2-y'
 70 '1/2+z, -x, 1/2+y'
 71 '1/2+z, x, 1/2-y'
 72 '1/2+z, x, 1/2+y'
 73 '1/2+x, 1/2+y, z'
 74 '1/2-x, 1/2-y, -z'
 75 '1/2-x, 1/2-y, z'
 76 '1/2-x, 1/2+y, -z'
 77 '1/2-x, 1/2+y, z'
 78 '1/2-y, 1/2-z, -x'
 79 '1/2-y, 1/2-z, x'
 80 '1/2-y, 1/2+z, -x'
 81 '1/2-y, 1/2+z, x'
 82 '1/2-z, 1/2-x, -y'
 83 '1/2-z, 1/2-x, y'
 84 '1/2-z, 1/2+x, -y'
 85 '1/2-z, 1/2+x, y'
 86 '1/2+x, 1/2-y, -z'
 87 '1/2+x, 1/2-y, z'
 88 '1/2+x, 1/2+y, -z'
 89 '1/2+y, 1/2-z, -x'
 90 '1/2+y, 1/2-z, x'
 91 '1/2+y, 1/2+z, -x'
 92 '1/2+y, 1/2+z, x'
 93 '1/2+z, 1/2-x, -y'
 94 '1/2+z, 1/2-x, y'
 95 '1/2+z, 1/2+x, -y'
 96 '1/2+z, 1/2+x, y'
loop_
 _atom_type_symbol
 Sc
 Pd
 In
loop_
 _atom_site_label
 _atom_site_type_symbol
 _atom_site_symmetry_multiplicity
 _atom_site_Wyckoff_symbol
 _atom_site_fract_x
 _atom_site_fract_y
 _atom_site_fract_z
 _atom_site_occupancy
 Sc1 Sc 96 i 0.09404 0.25738 0.15738 1
 Sc2 Sc 48 h 0 0.09209 0.35719 1
 Pd1 Pd 48 h 0 0.15508 0.21935 1
 Sc3 Sc 32 f 0.09119 0.09119 0.09119 1
 Sc4 Sc 24 e 0.21372 0 0 1
 In2 In 8 c 0.25 0.25 0.25 1
 Pd,In1A Pd 4 b 0.5 0.5 0.5 0.65(7)
 Pd,In1B In 4 b 0.5 0.5 0.5 0.35(7)
 Pd3 Pd 4 a 0 0 0 1


_exptl_crystal_colour                    ?
_exptl_crystal_density_meas              ?
_exptl_crystal_density_diffrn            4.64
_cell_measurement_temperature            ?
_cell_measurement_radiation              ?
_cell_measurement_reflns_used            ?
_diffrn_ambient_temperature              ?
_diffrn_measurement_device               'automatic diffractometer'
_diffrn_measurement_device_type          'STOE IPDS II'
_diffrn_radiation_type                   'X-rays, Mo Ka'
_diffrn_radiation_wavelength             0.71073
_diffrn_reflns_number                    36097
_diffrn_reflns_theta_min                 2.3
_diffrn_reflns_theta_max                 33.7
_exptl_absorpt_coefficient_mu            10.6
_exptl_absorpt_correction_type           analytical
_computing_structure_solution
'starting values derived from related structure, Fourier synthesis'           
_refine_ls_number_parameters             34
_refine_ls_number_reflns                 774
_refine_ls_R_factor_gt                   0.0169
_refine_ls_wR_factor_gt                  0.0310

# End of data set 1538762

