##############################################################################
#                                                                            #
# Ge-La-Ru         # La2Ru3Ge5                                     # 1538782 #
#                                                                            #
##############################################################################
#                                                                            #
#                           Pearson's Crystal Data                           #
#      Crystal Structure Database for Inorganic Compounds (on DVD)           #
#                              Release 2023/24                               #
#                  Editors: Pierre Villars and Karin Cenzual                 #
#                                                                            #
#   Copyright (c) ASM International & Material Phases Data System (MPDS),    #
# Switzerland & National Institute for Materials Science (NIMS), Japan, 2023 #
#                   All rights reserved. Version 2023.07                     #
#                                                                            #
#   This copy of Pearson's Crystal Data is licensed to:                      #
#   Hunter College - City University of New York                             #
#                                                                            #
##############################################################################

data_1538782
_audit_creation_date                     2024-02-25
_audit_creation_method
;
Pearson's Crystal Data browser
;
#_database_code_PCD                      1538782
_database_code_PDF                       ?

# Entry summary

_chemical_formula_structural             'La~2~ Ru~3~ Ge~5~'
_chemical_formula_sum                    'Ge5 La2 Ru3'
_chemical_name_mineral                   ?
_chemical_compound_source                ?
_chemical_name_structure_type            U~2~Co~3~Si~5~,oI40,72
_chemical_formula_weight                 944.2

# Bibliographic data

_publ_section_title
'Ferromagnetic ordering and heavy fermion behaviour in Ce~2~Ru~3~Ge~5~'       
_journal_coden_ASTM                      JUPSAU
_journal_name_full                       'J. Phys. Soc. Jpn.'
_journal_year                            2020
_journal_volume                          89
_journal_page_first                      1
_journal_page_last                       8
_journal_language                        English
loop_
 _publ_author_name
 _publ_author_address
'Kamadurai R.K.'
;
Johannesburg University (UJ)
Department of Physics
Johannesburg
South Africa
;
'Fobasso R.D.'
;
Johannesburg University (UJ)
Department of Physics
Johannesburg
South Africa
;
'Maurya A.'
;
Tohoku University
Institute for Materials Research (IMR)
Oarai / Ibaraki
Japan
;
'Ramankutty P.K.'
;
Johannesburg University (UJ)
Department of Physics
Johannesburg
South Africa
;
'Strydom A.M.'
;
Johannesburg University (UJ)
Department of Physics
Johannesburg
South Africa
;

# Standardized crystallographic data

_cell_length_a                           9.9497
_cell_length_b                           12.416
_cell_length_c                           5.8978
_cell_angle_alpha                        90
_cell_angle_beta                         90
_cell_angle_gamma                        90
_cell_volume                             728.6
_cell_formula_units_Z                    4
_space_group_IT_number                   72
_space_group_name_H-M_alt                'I b a m'
loop_
 _space_group_symop_id
 _space_group_symop_operation_xyz
 1 'x, y, z'
 2 '-x, -y, -z'
 3 '-x, -y, z'
 4 '-x, y, 1/2-z'
 5 '-x, y, 1/2+z'
 6 'x, -y, 1/2-z'
 7 'x, -y, 1/2+z'
 8 'x, y, -z'
 9 '1/2+x, 1/2+y, 1/2+z'
 10 '1/2-x, 1/2-y, 1/2-z'
 11 '1/2-x, 1/2-y, 1/2+z'
 12 '1/2-x, 1/2+y, 1-z'
 13 '1/2-x, 1/2+y, 1+z'
 14 '1/2+x, 1/2-y, 1-z'
 15 '1/2+x, 1/2-y, 1+z'
 16 '1/2+x, 1/2+y, 1/2-z'
loop_
 _atom_type_symbol
 Ru
 La
 Ge
loop_
 _atom_site_label
 _atom_site_type_symbol
 _atom_site_symmetry_multiplicity
 _atom_site_Wyckoff_symbol
 _atom_site_fract_x
 _atom_site_fract_y
 _atom_site_fract_z
 _atom_site_occupancy
 Ru1 Ru 8 j 0.1 0.132 0 1
 La La 8 j 0.264 0.363 0 1
 Ge1 Ge 8 j 0.356 0.0911 0 1
 Ge2 Ge 8 g 0 0.274 0.25 1
 Ru2 Ru 4 b 0.5 0 0.25 1
 Ge3 Ge 4 a 0 0 0.25 1


_exptl_crystal_colour                    ?
_exptl_crystal_density_meas              ?
_exptl_crystal_density_diffrn            8.61
_cell_measurement_temperature            ?
_cell_measurement_radiation              ?
_cell_measurement_reflns_used            ?
_diffrn_ambient_temperature              ?
_diffrn_measurement_device               'automatic diffractometer'
_diffrn_measurement_device_type          ?
_diffrn_radiation_type                   'X-rays, Cu Ka'
_diffrn_reflns_number                    ?
_exptl_absorpt_coefficient_mu            ?
_exptl_absorpt_correction_type           ?
_computing_structure_solution            'starting values from the literature'
_refine_ls_number_parameters             ?
_refine_ls_number_reflns                 ?
_refine_ls_R_factor_gt                   ?
_refine_ls_wR_factor_gt                  ?
_pd_proc_ls_proof_R_factor               ?
_pd_proc_ls_proof_wR_factor              0.128
_refine_ls_R_I_factor                    ?

# End of data set 1538782

