##############################################################################
#                                                                            #
# Ni-Sc-Si         # Sc6Ni18Si11                                   # 1538584 #
#                                                                            #
##############################################################################
#                                                                            #
#                           Pearson's Crystal Data                           #
#      Crystal Structure Database for Inorganic Compounds (on DVD)           #
#                              Release 2023/24                               #
#                  Editors: Pierre Villars and Karin Cenzual                 #
#                                                                            #
#   Copyright (c) ASM International & Material Phases Data System (MPDS),    #
# Switzerland & National Institute for Materials Science (NIMS), Japan, 2023 #
#                   All rights reserved. Version 2023.07                     #
#                                                                            #
#   This copy of Pearson's Crystal Data is licensed to:                      #
#   Hunter College - City University of New York                             #
#                                                                            #
##############################################################################

data_1538584
_audit_creation_date                     2024-02-25
_audit_creation_method
;
Pearson's Crystal Data browser
;
#_database_code_PCD                      1538584
_database_code_PDF                       ?

# Entry summary

_chemical_formula_structural             'Sc~6~ Ni~18~ Si~11~'
_chemical_formula_sum                    'Ni18 Sc6 Si11'
_chemical_name_mineral                   ?
_chemical_compound_source                ?
_chemical_name_structure_type            Sc~6~Ni~18~Si~11~,oI140,71
_chemical_formula_weight                 1635.2

# Bibliographic data

_publ_section_title
;
Phase equilibria at 800 \%C of the system Sc-Ni-Si with participation of the ternary compounds Sc~6~Ni~18~Si~11~ and Sc~6~Ni~16~Si~7~
;
_journal_coden_ASTM                      VLDUAB
_journal_name_full
'Visn. Lviv. Derzh. Univ., Ser. Khim.'                                        
_journal_year                            2020
_journal_volume                          61
_journal_page_first                      15
_journal_page_last                       21
_journal_language                        Ukrainian
loop_
 _publ_author_name
 _publ_author_address
'Kotur B.'
;
Lviv Ivan Franko National University
Department of Inorganic Chemistry
Lviv
Ukraine
;
'Babizhetskyy V.'
;
Lviv Ivan Franko National University
Department of Inorganic Chemistry
Lviv
Ukraine
;

# Standardized crystallographic data

_cell_length_a                           8.0368
_cell_length_b                           12.231
_cell_length_c                           17.945
_cell_angle_alpha                        90
_cell_angle_beta                         90
_cell_angle_gamma                        90
_cell_volume                             1764
_cell_formula_units_Z                    4
_space_group_IT_number                   71
_space_group_name_H-M_alt                'I m m m'
loop_
 _space_group_symop_id
 _space_group_symop_operation_xyz
 1 'x, y, z'
 2 '-x, -y, -z'
 3 '-x, -y, z'
 4 '-x, y, -z'
 5 '-x, y, z'
 6 'x, -y, -z'
 7 'x, -y, z'
 8 'x, y, -z'
 9 '1/2+x, 1/2+y, 1/2+z'
 10 '1/2-x, 1/2-y, 1/2-z'
 11 '1/2-x, 1/2-y, 1/2+z'
 12 '1/2-x, 1/2+y, 1/2-z'
 13 '1/2-x, 1/2+y, 1/2+z'
 14 '1/2+x, 1/2-y, 1/2-z'
 15 '1/2+x, 1/2-y, 1/2+z'
 16 '1/2+x, 1/2+y, 1/2-z'

# Atomic positions taken from type-defining entry

loop_
 _atom_type_symbol
 Ni
 Si
 Sc
loop_
 _atom_site_label
 _atom_site_type_symbol
 _atom_site_symmetry_multiplicity
 _atom_site_Wyckoff_symbol
 _atom_site_fract_x
 _atom_site_fract_y
 _atom_site_fract_z
 _atom_site_occupancy
 Ni1 Ni 16 o 0.1697 0.1547 0.2821 1
 Ni2 Ni 16 o 0.2219 0.3524 0.0845 1
 Si1 Si 16 o 0.2413 0.1688 0.1566 1
 Sc1 Sc 8 n 0.2966 0.1831 0 1
 Ni3 Ni 8 m 0.2305 0 0.0761 1
 Si2 Si 8 m 0.3221 0 0.332 1
 Ni4 Ni 8 m 0.3351 0 0.2099 1
 Ni5 Ni 8 l 0 0.1712 0.0786 1
 Si3 Si 8 l 0 0.216 0.3832 1
 Sc2 Sc 8 l 0 0.3165 0.2155 1
 Ni6 Ni 8 l 0 0.3996 0.3863 1
 Ni7 Ni 4 j 0.5 0 0.4311 1
 Sc3 Sc 4 i 0 0 0.1904 1
 Sc4 Sc 4 i 0 0 0.3712 1
 Ni8 Ni 4 h 0 0.119 0.5 1
 Si4 Si 4 g 0 0.3247 0 1
 Si5 Si 4 f 0.2679 0.5 0 1
 Si6 Si 2 b 0 0.5 0.5 1
 Si7 Si 2 a 0 0 0 1


_exptl_crystal_colour                    ?
_exptl_crystal_density_meas              ?
_exptl_crystal_density_diffrn            6.16
_cell_measurement_temperature            ?
_cell_measurement_radiation              ?
_cell_measurement_reflns_used            ?
_diffrn_ambient_temperature              ?
_diffrn_measurement_device               ?
_diffrn_measurement_device_type          ?
_diffrn_radiation_type                   ?
_diffrn_reflns_number                    ?
_exptl_absorpt_coefficient_mu            ?
_exptl_absorpt_correction_type           ?
_computing_structure_solution            ?
_refine_ls_number_parameters             ?
_refine_ls_number_reflns                 ?
_refine_ls_R_factor_gt                   ?
_refine_ls_wR_factor_gt                  ?

# End of data set 1538584

