##############################################################################
#                                                                            #
# Ga-Pt-U          # U0.67Pt2Ga5                                   # 1539754 #
#                                                                            #
##############################################################################
#                                                                            #
#                           Pearson's Crystal Data                           #
#      Crystal Structure Database for Inorganic Compounds (on DVD)           #
#                              Release 2023/24                               #
#                  Editors: Pierre Villars and Karin Cenzual                 #
#                                                                            #
#   Copyright (c) ASM International & Material Phases Data System (MPDS),    #
# Switzerland & National Institute for Materials Science (NIMS), Japan, 2023 #
#                   All rights reserved. Version 2023.07                     #
#                                                                            #
#   This copy of Pearson's Crystal Data is licensed to:                      #
#   Hunter College - City University of New York                             #
#                                                                            #
##############################################################################

data_1539754
_audit_creation_date                     2024-02-24
_audit_creation_method
;
Pearson's Crystal Data browser
;
#_database_code_PCD                      1539754
_database_code_PDF                       ?

# Entry summary

_chemical_formula_structural             'U~0.67~ Pt~2~ Ga~5~'
_chemical_formula_sum                    'Ga5.01 Pt2 U0.64'
_chemical_name_mineral                   ?
_chemical_compound_source                ?
_chemical_name_structure_type            Sc~0.6~Fe~2~Si~4.9~,hP20,194
_chemical_formula_weight                 898.3

# Bibliographic data

_publ_section_title
'Anisotropic physical properties of layered antiferromagnet U~2~Pt~6~Ga~15~'  
_journal_coden_ASTM                      JUPSAU
_journal_name_full                       'J. Phys. Soc. Jpn.'
_journal_year                            2021
_journal_volume                          90
_journal_page_first                      1
_journal_page_last                       6
_journal_language                        English
loop_
 _publ_author_name
 _publ_author_address
'Matsumoto Y.'
;
Toyama University
Graduate School of Science and Engineering
Toyama / Toyama
Japan
;
'Haga Y.'
;
Japan Atomic Energy Agency (JAEA)
Advanced Science Research Center
Tokai / Ibaraki
Japan
;
'Yamamoto E.'
;
Japan Atomic Energy Agency (JAEA)
Advanced Science Research Center
Tokai / Ibaraki
Japan
;
'Takeuchi T.'
;
Osaka University
Low Temperature Center
Toyonaka / Osaka
Japan
;
'Miyake A.'
;
Tokyo University
Institute for Solid State Physics (ISSP)
Kashiwa / Chiba
Japan
;
'Tokunaga M.'
;
Tokyo University
Institute for Solid State Physics (ISSP)
Kashiwa / Chiba
Japan
;

# Standardized crystallographic data

_cell_length_a                           4.3038
_cell_length_b                           4.3038
_cell_length_c                           16.297
_cell_angle_alpha                        90
_cell_angle_beta                         90
_cell_angle_gamma                        120
_cell_volume                             261.4
_cell_formula_units_Z                    2
_space_group_IT_number                   194
_space_group_name_H-M_alt                'P 63/m m c'
loop_
 _space_group_symop_id
 _space_group_symop_operation_xyz
 1 'x, y, z'
 2 '-x+y, -x, 1/2-z'
 3 '-x+y, -x, z'
 4 '-x+y, y, 1/2-z'
 5 '-x+y, y, z'
 6 '-x, -x+y, -z'
 7 '-x, -x+y, 1/2+z'
 8 '-x, -y, -z'
 9 '-x, -y, 1/2+z'
 10 '-y, -x, 1/2-z'
 11 '-y, -x, z'
 12 '-y, x-y, 1/2-z'
 13 '-y, x-y, z'
 14 'x, x-y, 1/2-z'
 15 'x, x-y, z'
 16 'x, y, 1/2-z'
 17 'x-y, -y, -z'
 18 'x-y, -y, 1/2+z'
 19 'x-y, x, -z'
 20 'x-y, x, 1/2+z'
 21 'y, -x+y, -z'
 22 'y, -x+y, 1/2+z'
 23 'y, x, -z'
 24 'y, x, 1/2+z'
loop_
 _atom_type_symbol
 Ga
 Pt
 U
loop_
 _atom_site_label
 _atom_site_type_symbol
 _atom_site_symmetry_multiplicity
 _atom_site_Wyckoff_symbol
 _atom_site_fract_x
 _atom_site_fract_y
 _atom_site_fract_z
 _atom_site_occupancy
 Ga1 Ga 6 h 0.5326 0.0652 0.25 0.336
 Ga3 Ga 4 f 0.333333 0.666667 0.04681 1
 Pt Pt 4 f 0.333333 0.666667 0.60913 1
 Ga2 Ga 4 e 0 0 0.13894 1
 U U 2 c 0.333333 0.666667 0.25 0.635


_exptl_crystal_colour                    ?
_exptl_crystal_density_meas              ?
_exptl_crystal_density_diffrn            11.41
_cell_measurement_temperature            ?
_cell_measurement_radiation              ?
_cell_measurement_reflns_used            ?
_diffrn_ambient_temperature              ?
_diffrn_measurement_device               'automatic diffractometer'
_diffrn_measurement_device_type          'Rigaku R-AXIS RAPID'
_diffrn_radiation_type                   'X-rays, Mo Ka'
_diffrn_reflns_number                    ?
_exptl_absorpt_coefficient_mu            ?
_exptl_absorpt_correction_type           ?
_computing_structure_solution            'starting values from the literature'
_refine_ls_number_parameters             ?
_refine_ls_number_reflns                 ?
_refine_ls_R_factor_gt                   0.0245
_refine_ls_wR_factor_gt                  0.0352

# End of data set 1539754

