##############################################################################
#                                                                            #
# Os-Pr-Sb         # PrOs4Sb12                                     #  300259 #
#                                                                            #
##############################################################################
#                                                                            #
#                           Pearson's Crystal Data                           #
#      Crystal Structure Database for Inorganic Compounds (on DVD)           #
#                              Release 2023/24                               #
#                  Editors: Pierre Villars and Karin Cenzual                 #
#                                                                            #
#   Copyright (c) ASM International & Material Phases Data System (MPDS),    #
# Switzerland & National Institute for Materials Science (NIMS), Japan, 2023 #
#                   All rights reserved. Version 2023.07                     #
#                                                                            #
#   This copy of Pearson's Crystal Data is licensed to:                      #
#   Hunter College - City University of New York                             #
#                                                                            #
##############################################################################

data_300259
_audit_creation_date                     2024-02-25
_audit_creation_method
;
Pearson's Crystal Data browser
;
#_database_code_PCD                      300259
_database_code_PDF                       04-001-3906

# Entry summary

_chemical_formula_structural             'Pr Os~4~ Sb~12~'
_chemical_formula_sum                    'Os4 Pr Sb12'
_chemical_name_mineral                   ?
_chemical_compound_source                ?
_chemical_name_structure_type            LaFe~4~P~12~,cI34,204
_chemical_formula_weight                 2362.7

# Bibliographic data

_publ_section_title
;
Preparation and structural investigations of antimonides with the LaFe~4~P~12~ structure
;
_journal_coden_ASTM                      JCOMAH
_journal_name_full                       'J. Less-Common Met.'
_journal_year                            1980
_journal_volume                          72
_journal_page_first                      147
_journal_page_last                       156
_journal_language                        English
loop_
 _publ_author_name
 _publ_author_address
'Braun D.J.'
;
TU Dortmund University
Fachbereich Anorganische Chemie
Dortmund
Germany
;
'Jeitschko W.'
;
TU Dortmund University
Fachbereich Anorganische Chemie
Dortmund
Germany
;

# Standardized crystallographic data

_cell_length_a                           9.2994
_cell_length_b                           9.2994
_cell_length_c                           9.2994
_cell_angle_alpha                        90
_cell_angle_beta                         90
_cell_angle_gamma                        90
_cell_volume                             804.2
_cell_formula_units_Z                    2
_space_group_IT_number                   204
_space_group_name_H-M_alt                'I m -3'
loop_
 _space_group_symop_id
 _space_group_symop_operation_xyz
 1 'x, y, z'
 2 '-x, -y, -z'
 3 '-x, -y, z'
 4 '-x, y, -z'
 5 '-x, y, z'
 6 '-y, -z, -x'
 7 '-y, -z, x'
 8 '-y, z, -x'
 9 '-y, z, x'
 10 '-z, -x, -y'
 11 '-z, -x, y'
 12 '-z, x, -y'
 13 '-z, x, y'
 14 'x, -y, -z'
 15 'x, -y, z'
 16 'x, y, -z'
 17 'y, -z, -x'
 18 'y, -z, x'
 19 'y, z, -x'
 20 'y, z, x'
 21 'z, -x, -y'
 22 'z, -x, y'
 23 'z, x, -y'
 24 'z, x, y'
 25 '1/2+x, 1/2+y, 1/2+z'
 26 '1/2-x, 1/2-y, 1/2-z'
 27 '1/2-x, 1/2-y, 1/2+z'
 28 '1/2-x, 1/2+y, 1/2-z'
 29 '1/2-x, 1/2+y, 1/2+z'
 30 '1/2-y, 1/2-z, 1/2-x'
 31 '1/2-y, 1/2-z, 1/2+x'
 32 '1/2-y, 1/2+z, 1/2-x'
 33 '1/2-y, 1/2+z, 1/2+x'
 34 '1/2-z, 1/2-x, 1/2-y'
 35 '1/2-z, 1/2-x, 1/2+y'
 36 '1/2-z, 1/2+x, 1/2-y'
 37 '1/2-z, 1/2+x, 1/2+y'
 38 '1/2+x, 1/2-y, 1/2-z'
 39 '1/2+x, 1/2-y, 1/2+z'
 40 '1/2+x, 1/2+y, 1/2-z'
 41 '1/2+y, 1/2-z, 1/2-x'
 42 '1/2+y, 1/2-z, 1/2+x'
 43 '1/2+y, 1/2+z, 1/2-x'
 44 '1/2+y, 1/2+z, 1/2+x'
 45 '1/2+z, 1/2-x, 1/2-y'
 46 '1/2+z, 1/2-x, 1/2+y'
 47 '1/2+z, 1/2+x, 1/2-y'
 48 '1/2+z, 1/2+x, 1/2+y'

# Atomic positions taken from type-defining entry

loop_
 _atom_type_symbol
 Sb
 Os
 Pr
loop_
 _atom_site_label
 _atom_site_type_symbol
 _atom_site_symmetry_multiplicity
 _atom_site_Wyckoff_symbol
 _atom_site_fract_x
 _atom_site_fract_y
 _atom_site_fract_z
 _atom_site_occupancy
 Sb1 Sb 24 g 0 0.1504 0.3539 1
 Os1 Os 8 c 0.25 0.25 0.25 1
 Pr1 Pr 2 a 0 0 0 1


_exptl_crystal_colour                    black
_exptl_crystal_density_meas              ?
_exptl_crystal_density_diffrn            9.76
_cell_measurement_temperature            ?
_cell_measurement_radiation              'X-rays, Cu Ka'
_cell_measurement_reflns_used            ?
_diffrn_ambient_temperature              ?
_diffrn_measurement_device               'Guinier film'
_diffrn_measurement_device_type          ?
_diffrn_radiation_type                   ?
_diffrn_reflns_number                    ?
_exptl_absorpt_coefficient_mu            ?
_exptl_absorpt_correction_type           ?
_computing_structure_solution            ?
_refine_ls_number_parameters             ?
_refine_ls_number_reflns                 ?
_refine_ls_R_factor_gt                   ?
_refine_ls_wR_factor_gt                  ?

# Published diffraction lines

loop_
 _refln_index_h
 _refln_index_k
 _refln_index_l
 _refln_d_spacing
 _refln_intensity_meas
 2 0 0 4.652 5
 2 2 0 3.288 5
 3 1 0 2.941 8
 2 2 2 2.684 3
 2 3 1 2.485 7
 4 0 0 2.325 3
 4 1 1 2.194 3
 4 2 0 2.078 7
 4 2 2 1.899 7
 3 4 1 1.824 7
 4 4 0 1.644 3
 5 3 0 1.595 5

# End of data set 300259

