##############################################################################
#                                                                            #
# Ge-Ni-Sc         # ScNi6Ge6                                      #  301173 #
#                                                                            #
##############################################################################
#                                                                            #
#                           Pearson's Crystal Data                           #
#      Crystal Structure Database for Inorganic Compounds (on DVD)           #
#                              Release 2023/24                               #
#                  Editors: Pierre Villars and Karin Cenzual                 #
#                                                                            #
#   Copyright (c) ASM International & Material Phases Data System (MPDS),    #
# Switzerland & National Institute for Materials Science (NIMS), Japan, 2023 #
#                   All rights reserved. Version 2023.07                     #
#                                                                            #
#   This copy of Pearson's Crystal Data is licensed to:                      #
#   Hunter College - City University of New York                             #
#                                                                            #
##############################################################################

data_301173
_audit_creation_date                     2024-02-25
_audit_creation_method
;
Pearson's Crystal Data browser
;
#_database_code_PCD                      301173
_database_code_PDF                       04-008-8786

# Entry summary

_chemical_formula_structural             'Sc Ni~6~ Ge~6~'
_chemical_formula_sum                    'Ge6 Ni6 Sc'
_chemical_name_mineral                   ?
_chemical_compound_source                ?
_chemical_name_structure_type            ScNi~6~Ge~6~,hP52,191
_chemical_formula_weight                 832.7

# Bibliographic data

_publ_section_title
;
Intermetallische Phasen mit B35-Uberstruktur und Verwandtschaftsbeziehung zu LiFe~6~Ge~6~
;
_journal_coden_ASTM                      ZAACAB
_journal_name_full                       'Z. Anorg. Allg. Chem.'
_journal_year                            1981
_journal_volume                          482
_journal_page_first                      40
_journal_page_last                       48
_journal_language                        German
loop_
 _publ_author_name
 _publ_author_address
'Buchholz W.'
;
Cologne University
Institut fur Anorganische Chemie
Cologne
Germany
;
'Schuster H.U.'
;
Cologne University
Institut fur Anorganische Chemie
Cologne
Germany
;

# Standardized crystallographic data

_cell_length_a                           10.152
_cell_length_b                           10.152
_cell_length_c                           7.813
_cell_angle_alpha                        90
_cell_angle_beta                         90
_cell_angle_gamma                        120
_cell_volume                             697.4
_cell_formula_units_Z                    4
_space_group_IT_number                   191
_space_group_name_H-M_alt                'P 6/m m m'
loop_
 _space_group_symop_id
 _space_group_symop_operation_xyz
 1 'x, y, z'
 2 '-x+y, -x, -z'
 3 '-x+y, -x, z'
 4 '-x+y, y, -z'
 5 '-x+y, y, z'
 6 '-x, -x+y, -z'
 7 '-x, -x+y, z'
 8 '-x, -y, -z'
 9 '-x, -y, z'
 10 '-y, -x, -z'
 11 '-y, -x, z'
 12 '-y, x-y, -z'
 13 '-y, x-y, z'
 14 'x, x-y, -z'
 15 'x, x-y, z'
 16 'x, y, -z'
 17 'x-y, -y, -z'
 18 'x-y, -y, z'
 19 'x-y, x, -z'
 20 'x-y, x, z'
 21 'y, -x+y, -z'
 22 'y, -x+y, z'
 23 'y, x, -z'
 24 'y, x, z'
loop_
 _atom_type_symbol
 Ni
 Ge
 Sc
loop_
 _atom_site_label
 _atom_site_type_symbol
 _atom_site_symmetry_multiplicity
 _atom_site_Wyckoff_symbol
 _atom_site_fract_x
 _atom_site_fract_y
 _atom_site_fract_z
 _atom_site_occupancy
 Ni2 Ni 12 o 0.247 0.494 0.25 1
 Ni1 Ni 12 n 0.238 0 0.258 1
 Ge2 Ge 6 m 0.162 0.324 0.5 1
 Ge1 Ge 6 l 0.16 0.32 0 1
 Ge6 Ge 6 i 0.5 0 0.158 1
 Sc2 Sc 3 g 0.5 0 0.5 1
 Ge5 Ge 2 e 0 0 0.34 1
 Ge4 Ge 2 d 0.333333 0.666667 0.5 1
 Ge3 Ge 2 c 0.333333 0.666667 0 1
 Sc1 Sc 1 a 0 0 0 1


_exptl_crystal_colour                    gray
_exptl_crystal_density_meas              7.72
_exptl_crystal_density_diffrn            7.93
_cell_measurement_temperature            ?
_cell_measurement_radiation              'X-rays, Cu Ka'
_cell_measurement_reflns_used            ?
_diffrn_ambient_temperature              ?
_diffrn_measurement_device               'automatic diffractometer'
_diffrn_measurement_device_type          'Enraf-Nonius CAD4'
_diffrn_radiation_type                   'X-rays, Mo Ka'
_diffrn_reflns_number                    ?
_exptl_absorpt_coefficient_mu            ?
_exptl_absorpt_correction_type           ?
_computing_structure_solution            'starting values from the literature'
_refine_ls_number_parameters             ?
_refine_ls_number_reflns                 ?
_refine_ls_R_factor_gt                   0.057
_refine_ls_wR_factor_gt                  ?

# End of data set 301173

