##############################################################################
#                                                                            #
# Os-Si-Y          # Y5Os4Si14                                     #  302067 #
#                                                                            #
##############################################################################
#                                                                            #
#                           Pearson's Crystal Data                           #
#      Crystal Structure Database for Inorganic Compounds (on DVD)           #
#                              Release 2023/24                               #
#                  Editors: Pierre Villars and Karin Cenzual                 #
#                                                                            #
#   Copyright (c) ASM International & Material Phases Data System (MPDS),    #
# Switzerland & National Institute for Materials Science (NIMS), Japan, 2023 #
#                   All rights reserved. Version 2023.07                     #
#                                                                            #
#   This copy of Pearson's Crystal Data is licensed to:                      #
#   Hunter College - City University of New York                             #
#                                                                            #
##############################################################################

data_302067
_audit_creation_date                     2024-02-25
_audit_creation_method
;
Pearson's Crystal Data browser
;
#_database_code_PCD                      302067
_database_code_PDF                       04-012-8826

# Entry summary

_chemical_formula_structural             'Y~5~ Os~4~ Si~14~'
_chemical_formula_sum                    'Os4 Si14 Y5'
_chemical_name_mineral                   ?
_chemical_compound_source                ?
_chemical_name_structure_type            Y~5~Os~4~Si~14~,mP46,14
_chemical_formula_weight                 1598.5

# Bibliographic data

_publ_section_title
;
Crystal structures of orthorhombic Y~3~Os~4~Si~12~ and monoclinic Y~5~Os~4~Si~14~ and Y~9~Os~4~Si~20~
;
_journal_coden_ASTM                      JCOMAH
_journal_name_full                       'J. Less-Common Met.'
_journal_year                            1988
_journal_volume                          142
_journal_page_first                      169
_journal_page_last                       176
_journal_language                        English
loop_
 _publ_author_name
 _publ_author_address
'Gueramian M.'
;
Geneva University (UNIGE)
Laboratoire de Cristallographie aux Rayons X
Geneva
Switzerland
;
'Chabot B.'
;
Geneva University (UNIGE)
Laboratoire de Cristallographie aux Rayons X
Geneva
Switzerland
;
'Yvon K.'
;
Geneva University (UNIGE)
Laboratoire de Cristallographie aux Rayons X
Geneva
Switzerland
;
'Schellenberg I.'
;
Geneva University (UNIGE)
Departement de Physique de la Matiere Condensee (DPMC)
Geneva
Switzerland
;
'Braun H.F.'
;
Bayreuth University
Institut fur Physik
Bayreuth
Germany
;

# Standardized crystallographic data

_cell_length_a                           12.779
_cell_length_b                           8.019
_cell_length_c                           7.926
_cell_angle_alpha                        90
_cell_angle_beta                         98.69
_cell_angle_gamma                        90
_cell_volume                             802.9
_cell_formula_units_Z                    2
_space_group_IT_number                   14
_space_group_name_H-M_alt                'P 1 21/c 1'
loop_
 _space_group_symop_id
 _space_group_symop_operation_xyz
 1 'x, y, z'
 2 '-x, -y, -z'
 3 '-x, 1/2+y, 1/2-z'
 4 'x, 1/2-y, 1/2+z'
loop_
 _atom_type_symbol
 Os
 Si
 Y
loop_
 _atom_site_label
 _atom_site_type_symbol
 _atom_site_symmetry_multiplicity
 _atom_site_Wyckoff_symbol
 _atom_site_fract_x
 _atom_site_fract_y
 _atom_site_fract_z
 _atom_site_occupancy
 Os(1) Os 4 e 0.00041 0.1263 0.3717 1
 Si(1) Si 4 e 0.0008 0.3317 0.1671 1
 Si(5) Si 4 e 0.1781 0.0049 0.3216 1
 Si(2) Si 4 e 0.1782 0.721 0.0503 1
 Si(4) Si 4 e 0.1787 0.5078 0.2648 1
 Si(3) Si 4 e 0.1797 0.2778 0.0375 1
 Os(2) Os 4 e 0.25384 0.5003 0.5612 1
 Y(2) Y 4 e 0.3644 0.251 0.3382 1
 Si(7) Si 4 e 0.4419 0.0022 0.1068 1
 Si(6) Si 4 e 0.4456 0.4987 0.1128 1
 Y(1) Y 4 e 0.6365 0.2539 0.1571 1
 Y(3) Y 2 a 0 0 0 1


_exptl_crystal_colour                    ?
_exptl_crystal_density_meas              ?
_exptl_crystal_density_diffrn            6.61
_cell_measurement_temperature            ?
_cell_measurement_radiation              'X-rays, Mo Ka'
_cell_measurement_reflns_used            ?
_diffrn_ambient_temperature              ?
_diffrn_measurement_device               'automatic diffractometer'
_diffrn_measurement_device_type          'Philips PW1100'
_diffrn_radiation_type                   'X-rays, Mo Ka'
_diffrn_reflns_number                    2336
_exptl_absorpt_coefficient_mu            52.95
_exptl_absorpt_correction_type           yes
_computing_structure_solution            'starting values from the literature'
_refine_ls_number_parameters             47
_refine_ls_number_reflns                 1800
_refine_ls_R_factor_gt                   0.071
_refine_ls_wR_factor_gt                  0.072

# End of data set 302067

