##############################################################################
#                                                                            #
# Os-Si-Y          # Y3Os4Si12                                     #  302066 #
#                                                                            #
##############################################################################
#                                                                            #
#                           Pearson's Crystal Data                           #
#      Crystal Structure Database for Inorganic Compounds (on DVD)           #
#                              Release 2023/24                               #
#                  Editors: Pierre Villars and Karin Cenzual                 #
#                                                                            #
#   Copyright (c) ASM International & Material Phases Data System (MPDS),    #
# Switzerland & National Institute for Materials Science (NIMS), Japan, 2023 #
#                   All rights reserved. Version 2023.07                     #
#                                                                            #
#   This copy of Pearson's Crystal Data is licensed to:                      #
#   Hunter College - City University of New York                             #
#                                                                            #
##############################################################################

data_302066
_audit_creation_date                     2024-02-25
_audit_creation_method
;
Pearson's Crystal Data browser
;
#_database_code_PCD                      302066
_database_code_PDF                       04-001-5511

# Entry summary

_chemical_formula_structural             'Y~3~ Os~4~ Si~12~'
_chemical_formula_sum                    'Os4 Si12 Y3'
_chemical_name_mineral                   ?
_chemical_compound_source                ?
_chemical_name_structure_type            Er~3~Ru~4~Si~12~,oS76,64
_chemical_formula_weight                 1364.5

# Bibliographic data

_publ_section_title
;
Crystal structures of orthorhombic Y~3~Os~4~Si~12~ and monoclinic Y~5~Os~4~Si~14~ and Y~9~Os~4~Si~20~
;
_journal_coden_ASTM                      JCOMAH
_journal_name_full                       'J. Less-Common Met.'
_journal_year                            1988
_journal_volume                          142
_journal_page_first                      169
_journal_page_last                       176
_journal_language                        English
loop_
 _publ_author_name
 _publ_author_address
'Gueramian M.'
;
Geneva University (UNIGE)
Laboratoire de Cristallographie aux Rayons X
Geneva
Switzerland
;
'Chabot B.'
;
Geneva University (UNIGE)
Laboratoire de Cristallographie aux Rayons X
Geneva
Switzerland
;
'Yvon K.'
;
Geneva University (UNIGE)
Laboratoire de Cristallographie aux Rayons X
Geneva
Switzerland
;
'Schellenberg I.'
;
Geneva University (UNIGE)
Departement de Physique de la Matiere Condensee (DPMC)
Geneva
Switzerland
;
'Braun H.F.'
;
Bayreuth University
Institut fur Physik
Bayreuth
Germany
;

# Standardized crystallographic data

_cell_length_a                           18.495
_cell_length_b                           8.125
_cell_length_c                           8.13
_cell_angle_alpha                        90
_cell_angle_beta                         90
_cell_angle_gamma                        90
_cell_volume                             1221.7
_cell_formula_units_Z                    4
_space_group_IT_number                   64
_space_group_name_H-M_alt                'C m c e'
loop_
 _space_group_symop_id
 _space_group_symop_operation_xyz
 1 'x, y, z'
 2 '-x, 1/2-y, 1/2+z'
 3 '-x, -y, -z'
 4 '-x, 1/2+y, 1/2-z'
 5 '-x, y, z'
 6 'x, 1/2-y, 1/2+z'
 7 'x, -y, -z'
 8 'x, 1/2+y, 1/2-z'
 9 '1/2+x, 1/2+y, z'
 10 '1/2-x, 1-y, 1/2+z'
 11 '1/2-x, 1/2-y, -z'
 12 '1/2-x, 1+y, 1/2-z'
 13 '1/2-x, 1/2+y, z'
 14 '1/2+x, 1-y, 1/2+z'
 15 '1/2+x, 1/2-y, -z'
 16 '1/2+x, 1+y, 1/2-z'
loop_
 _atom_type_symbol
 Si
 Os
 Y
loop_
 _atom_site_label
 _atom_site_type_symbol
 _atom_site_symmetry_multiplicity
 _atom_site_Wyckoff_symbol
 _atom_site_fract_x
 _atom_site_fract_y
 _atom_site_fract_z
 _atom_site_occupancy
 Si(1) Si 16 g 0.117 0.004 0.27 1
 Si(2) Si 16 g 0.3827 0.229 0.005 1
 Os(1) Os 8 f 0 0.1269 0.3729 1
 Si(3) Si 8 f 0 0.336 0.167 1
 Y(1) Y 8 e 0.25 0.2523 0.25 1
 Os(2) Os 8 d 0.1696 0 0 1
 Si(4) Si 8 d 0.2973 0 0 1
 Y(2) Y 4 a 0 0 0 1


_exptl_crystal_colour                    ?
_exptl_crystal_density_meas              ?
_exptl_crystal_density_diffrn            7.42
_cell_measurement_temperature            ?
_cell_measurement_radiation              'X-rays, Mo Ka'
_cell_measurement_reflns_used            ?
_diffrn_ambient_temperature              ?
_diffrn_measurement_device               'automatic diffractometer'
_diffrn_measurement_device_type          'Philips PW1100'
_diffrn_radiation_type                   'X-rays, Mo Ka'
_diffrn_reflns_number                    927
_exptl_absorpt_coefficient_mu            59.75
_exptl_absorpt_correction_type           spherical
_computing_structure_solution            'starting values from the literature'
_refine_ls_number_parameters             51
_refine_ls_number_reflns                 793
_refine_ls_R_factor_gt                   0.096
_refine_ls_wR_factor_gt                  0.094

# End of data set 302066

