##############################################################################
#                                                                            #
# Co-Lu-Si         # Lu2Co3Si5 mon                                 #  302101 #
#                                                                            #
##############################################################################
#                                                                            #
#                           Pearson's Crystal Data                           #
#      Crystal Structure Database for Inorganic Compounds (on DVD)           #
#                              Release 2023/24                               #
#                  Editors: Pierre Villars and Karin Cenzual                 #
#                                                                            #
#   Copyright (c) ASM International & Material Phases Data System (MPDS),    #
# Switzerland & National Institute for Materials Science (NIMS), Japan, 2023 #
#                   All rights reserved. Version 2023.07                     #
#                                                                            #
#   This copy of Pearson's Crystal Data is licensed to:                      #
#   Hunter College - City University of New York                             #
#                                                                            #
##############################################################################

data_302101
_audit_creation_date                     2024-02-24
_audit_creation_method
;
Pearson's Crystal Data browser
;
#_database_code_PCD                      302101
_database_code_PDF                       04-001-5534

# Entry summary

_chemical_formula_structural             'Lu~2~ Co~3~ Si~5~'
_chemical_formula_sum                    'Co3 Lu2 Si5'
_chemical_name_mineral                   ?
_chemical_compound_source                ?
_chemical_name_structure_type            Lu~2~Co~3~Si~5~,mS40,15
_chemical_formula_weight                 667.2

# Bibliographic data

_publ_section_title
;
Dy~2~Co~3~Si~5~, Lu~2~Co~3~Si~5~, Y~2~Co~3~Si~5~ and Sc~2~Co~3~Si~5~ with a monoclinic structural deformation variant of the orthorhombic U~2~Co~3~Si~5~ structure type
;
_journal_coden_ASTM                      JCOMAH
_journal_name_full                       'J. Less-Common Met.'
_journal_year                            1985
_journal_volume                          106
_journal_page_first                      53
_journal_page_last                       59
_journal_language                        English
loop_
 _publ_author_name
 _publ_author_address
'Chabot B.'
;
Geneva University (UNIGE)
Laboratoire de Cristallographie aux Rayons X
Geneva
Switzerland
;
'Parthe E.'
;
Geneva University (UNIGE)
Laboratoire de Cristallographie aux Rayons X
Geneva
Switzerland
;

# Standardized crystallographic data

_cell_length_a                           10.64
_cell_length_b                           11.358
_cell_length_c                           5.432
_cell_angle_alpha                        90
_cell_angle_beta                         118.37
_cell_angle_gamma                        90
_cell_volume                             577.6
_cell_formula_units_Z                    4
_space_group_IT_number                   15
_space_group_name_H-M_alt                'C 1 2/c 1'
loop_
 _space_group_symop_id
 _space_group_symop_operation_xyz
 1 'x, y, z'
 2 '-x, -y, -z'
 3 '-x, y, 1/2-z'
 4 'x, -y, 1/2+z'
 5 '1/2+x, 1/2+y, z'
 6 '1/2-x, 1/2-y, -z'
 7 '1/2-x, 1/2+y, 1/2-z'
 8 '1/2+x, 1/2-y, 1/2+z'
loop_
 _atom_type_symbol
 Co
 Lu
 Si
loop_
 _atom_site_label
 _atom_site_type_symbol
 _atom_site_symmetry_multiplicity
 _atom_site_Wyckoff_symbol
 _atom_site_fract_x
 _atom_site_fract_y
 _atom_site_fract_z
 _atom_site_occupancy
 Co(1) Co 8 f 0.098 0.3592 0.1252 1
 Lu Lu 8 f 0.26731 0.13748 0.2649 1
 Si(1) Si 8 f 0.3323 0.402 0.33 1
 Co(2) Co 4 e 0 0.0031 0.25 1
 Si(2) Si 4 e 0 0.2134 0.25 1
 Si(3) Si 4 e 0 0.5127 0.25 1
 Si(4) Si 4 e 0 0.7737 0.25 1


_exptl_crystal_colour                    ?
_exptl_crystal_density_meas              ?
_exptl_crystal_density_diffrn            7.67
_cell_measurement_temperature            ?
_cell_measurement_radiation              'X-rays, Mo Ka'
_cell_measurement_wavelength             0.71069
_pd_proc_wavelength                      0.71069
_cell_measurement_reflns_used            17
_diffrn_ambient_temperature              ?
_diffrn_measurement_device               'automatic diffractometer'
_diffrn_measurement_device_type          'Philips PW1100'
_diffrn_radiation_type                   'X-rays, Mo Ka'
_diffrn_radiation_wavelength             0.71069
_diffrn_reflns_number                    ?
_diffrn_reflns_theta_min                 0.88
_diffrn_reflns_theta_max                 7.03
_exptl_absorpt_coefficient_mu            56
_exptl_absorpt_correction_type           ?
_computing_structure_solution            'crystal chemical considerations'
_refine_ls_number_parameters             21
_refine_ls_number_reflns                 796
_refine_ls_R_factor_gt                   0.077
_refine_ls_wR_factor_gt                  0.074

# End of data set 302101

