##############################################################################
#                                                                            #
# Fe-Ge-Tm         # Tm9Fe10Ge10                                   #  302482 #
#                                                                            #
##############################################################################
#                                                                            #
#                           Pearson's Crystal Data                           #
#      Crystal Structure Database for Inorganic Compounds (on DVD)           #
#                              Release 2023/24                               #
#                  Editors: Pierre Villars and Karin Cenzual                 #
#                                                                            #
#   Copyright (c) ASM International & Material Phases Data System (MPDS),    #
# Switzerland & National Institute for Materials Science (NIMS), Japan, 2023 #
#                   All rights reserved. Version 2023.07                     #
#                                                                            #
#   This copy of Pearson's Crystal Data is licensed to:                      #
#   Hunter College - City University of New York                             #
#                                                                            #
##############################################################################

data_302482
_audit_creation_date                     2024-02-24
_audit_creation_method
;
Pearson's Crystal Data browser
;
#_database_code_PCD                      302482
_database_code_PDF                       04-008-8847

# Entry summary

_chemical_formula_structural             'Tm~9~ Fe~10~ Ge~10~'
_chemical_formula_sum                    'Fe10 Ge10 Tm9'
_chemical_name_mineral                   ?
_chemical_compound_source                ?
_chemical_name_structure_type            Tm~9~Fe~10~Ge~10~,oI58,71
_chemical_formula_weight                 2804.8

# Bibliographic data

_publ_section_title                      'Er(Tm)-Fe-Ge system'
_journal_coden_ASTM                      INOMAF
_journal_name_full                       'Inorg. Mater.'
_journal_year                            1992
_journal_volume                          28
_journal_page_first                      371
_journal_page_last                       374
_journal_language                        English
loop_
 _publ_author_name
 _publ_author_address
'Bodak O.I.'
;
Lviv Ivan Franko State University
Department of Inorganic Chemistry
Lviv
Ukraine
;
'Oleksyn O.Y.'
;
Lviv Ivan Franko State University
Lviv
Ukraine
;
'Fedyna M.F.'
;
Lviv Ivan Franko State University
Lviv
Ukraine
;
'Pecharskii V.K.'
;
Lviv Ivan Franko State University
Department of Inorganic Chemistry
Lviv
Ukraine
;

# Standardized crystallographic data

_cell_length_a                           5.386
_cell_length_b                           13.306
_cell_length_c                           13.916
_cell_angle_alpha                        90
_cell_angle_beta                         90
_cell_angle_gamma                        90
_cell_volume                             997.3
_cell_formula_units_Z                    2
_space_group_IT_number                   71
_space_group_name_H-M_alt                'I m m m'
loop_
 _space_group_symop_id
 _space_group_symop_operation_xyz
 1 'x, y, z'
 2 '-x, -y, -z'
 3 '-x, -y, z'
 4 '-x, y, -z'
 5 '-x, y, z'
 6 'x, -y, -z'
 7 'x, -y, z'
 8 'x, y, -z'
 9 '1/2+x, 1/2+y, 1/2+z'
 10 '1/2-x, 1/2-y, 1/2-z'
 11 '1/2-x, 1/2-y, 1/2+z'
 12 '1/2-x, 1/2+y, 1/2-z'
 13 '1/2-x, 1/2+y, 1/2+z'
 14 '1/2+x, 1/2-y, 1/2-z'
 15 '1/2+x, 1/2-y, 1/2+z'
 16 '1/2+x, 1/2+y, 1/2-z'

# Atomic positions taken from type-defining entry

loop_
 _atom_type_symbol
 Fe
 Tm
 Ge
loop_
 _atom_site_label
 _atom_site_type_symbol
 _atom_site_symmetry_multiplicity
 _atom_site_Wyckoff_symbol
 _atom_site_fract_x
 _atom_site_fract_y
 _atom_site_fract_z
 _atom_site_occupancy
 Fe1 Fe 16 o 0.2522 0.1438 0.1541 1
 Tm1 Tm 8 l 0 0.1462 0.3644 1
 Ge1 Ge 8 l 0 0.2905 0.2049 1
 Fe2 Fe 4 j 0.5 0 0.0904 1
 Tm2 Tm 4 j 0.5 0 0.3052 1
 Ge2 Ge 4 i 0 0 0.2099 1
 Ge3 Ge 4 h 0 0.3252 0.5 1
 Tm3 Tm 4 g 0 0.2836 0 1
 Ge4 Ge 4 f 0.249 0.5 0 1
 Tm4 Tm 2 a 0 0 0 1


_exptl_crystal_colour                    ?
_exptl_crystal_density_meas              ?
_exptl_crystal_density_diffrn            9.34
_cell_measurement_temperature            ?
_cell_measurement_radiation              X-rays
_cell_measurement_reflns_used            ?
_diffrn_ambient_temperature              ?
_diffrn_measurement_device               film
_diffrn_measurement_device_type          ?
_diffrn_radiation_type                   ?
_diffrn_reflns_number                    ?
_exptl_absorpt_coefficient_mu            ?
_exptl_absorpt_correction_type           ?
_computing_structure_solution            ?
_refine_ls_number_parameters             ?
_refine_ls_number_reflns                 ?
_refine_ls_R_factor_gt                   ?
_refine_ls_wR_factor_gt                  ?

# End of data set 302482

