##############################################################################
#                                                                            #
# Er-Fe-Ge         # Er3Fe2Ge3                                     #  302476 #
#                                                                            #
##############################################################################
#                                                                            #
#                           Pearson's Crystal Data                           #
#      Crystal Structure Database for Inorganic Compounds (on DVD)           #
#                              Release 2023/24                               #
#                  Editors: Pierre Villars and Karin Cenzual                 #
#                                                                            #
#   Copyright (c) ASM International & Material Phases Data System (MPDS),    #
# Switzerland & National Institute for Materials Science (NIMS), Japan, 2023 #
#                   All rights reserved. Version 2023.07                     #
#                                                                            #
#   This copy of Pearson's Crystal Data is licensed to:                      #
#   Hunter College - City University of New York                             #
#                                                                            #
##############################################################################

data_302476
_audit_creation_date                     2024-02-24
_audit_creation_method
;
Pearson's Crystal Data browser
;
#_database_code_PCD                      302476
_database_code_PDF                       04-001-5807

# Entry summary

_chemical_formula_structural             'Er~3~ Fe~2~ Ge~3~'
_chemical_formula_sum                    'Er3 Fe2 Ge3'
_chemical_name_mineral                   ?
_chemical_compound_source                ?
_chemical_name_structure_type            Hf~3~Ni~2~Si~3~,oS32,63
_chemical_formula_weight                 831.2
_chemical_melting_point                  1533

# Bibliographic data

_publ_section_title                      'Er(Tm)-Fe-Ge system'
_journal_coden_ASTM                      INOMAF
_journal_name_full                       'Inorg. Mater.'
_journal_year                            1992
_journal_volume                          28
_journal_page_first                      371
_journal_page_last                       374
_journal_language                        English
loop_
 _publ_author_name
 _publ_author_address
'Bodak O.I.'
;
Lviv Ivan Franko State University
Department of Inorganic Chemistry
Lviv
Ukraine
;
'Oleksyn O.Y.'
;
Lviv Ivan Franko State University
Lviv
Ukraine
;
'Fedyna M.F.'
;
Lviv Ivan Franko State University
Lviv
Ukraine
;
'Pecharskii V.K.'
;
Lviv Ivan Franko State University
Department of Inorganic Chemistry
Lviv
Ukraine
;

# Standardized crystallographic data

_cell_length_a                           4.149
_cell_length_b                           10.59
_cell_length_c                           13.758
_cell_angle_alpha                        90
_cell_angle_beta                         90
_cell_angle_gamma                        90
_cell_volume                             604.5
_cell_formula_units_Z                    4
_space_group_IT_number                   63
_space_group_name_H-M_alt                'C m c m'
loop_
 _space_group_symop_id
 _space_group_symop_operation_xyz
 1 'x, y, z'
 2 '-x, -y, -z'
 3 '-x, -y, 1/2+z'
 4 '-x, y, 1/2-z'
 5 '-x, y, z'
 6 'x, -y, -z'
 7 'x, -y, 1/2+z'
 8 'x, y, 1/2-z'
 9 '1/2+x, 1/2+y, z'
 10 '1/2-x, 1/2-y, -z'
 11 '1/2-x, 1/2-y, 1/2+z'
 12 '1/2-x, 1/2+y, 1/2-z'
 13 '1/2-x, 1/2+y, z'
 14 '1/2+x, 1/2-y, -z'
 15 '1/2+x, 1/2-y, 1/2+z'
 16 '1/2+x, 1/2+y, 1/2-z'

# Atomic positions taken from type-defining entry

loop_
 _atom_type_symbol
 Er
 Fe
 Ge
loop_
 _atom_site_label
 _atom_site_type_symbol
 _atom_site_symmetry_multiplicity
 _atom_site_Wyckoff_symbol
 _atom_site_fract_x
 _atom_site_fract_y
 _atom_site_fract_z
 _atom_site_occupancy
 Er1 Er 8 f 0 0.0732 0.1177 1
 Fe1 Fe 8 f 0 0.2166 0.5844 1
 Ge1 Ge 8 f 0 0.391 0.0388 1
 Er2 Er 4 c 0 0.3663 0.25 1
 Ge2 Ge 4 c 0 0.6658 0.25 1


_exptl_crystal_colour                    ?
_exptl_crystal_density_meas              ?
_exptl_crystal_density_diffrn            9.13
_cell_measurement_temperature            ?
_cell_measurement_radiation              X-rays
_cell_measurement_reflns_used            ?
_diffrn_ambient_temperature              ?
_diffrn_measurement_device               film
_diffrn_measurement_device_type          ?
_diffrn_radiation_type                   ?
_diffrn_reflns_number                    ?
_exptl_absorpt_coefficient_mu            ?
_exptl_absorpt_correction_type           ?
_computing_structure_solution            ?
_refine_ls_number_parameters             ?
_refine_ls_number_reflns                 ?
_refine_ls_R_factor_gt                   ?
_refine_ls_wR_factor_gt                  ?

# End of data set 302476

