##############################################################################
#                                                                            #
# In-La-Ni         # LaNi3In2                                      #  309889 #
#                                                                            #
##############################################################################
#                                                                            #
#                           Pearson's Crystal Data                           #
#      Crystal Structure Database for Inorganic Compounds (on DVD)           #
#                              Release 2023/24                               #
#                  Editors: Pierre Villars and Karin Cenzual                 #
#                                                                            #
#   Copyright (c) ASM International & Material Phases Data System (MPDS),    #
# Switzerland & National Institute for Materials Science (NIMS), Japan, 2023 #
#                   All rights reserved. Version 2023.07                     #
#                                                                            #
#   This copy of Pearson's Crystal Data is licensed to:                      #
#   Hunter College - City University of New York                             #
#                                                                            #
##############################################################################

data_309889
_audit_creation_date                     2024-02-25
_audit_creation_method
;
Pearson's Crystal Data browser
;
#_database_code_PCD                      309889
_database_code_PDF                       04-001-9912

# Entry summary

_chemical_formula_structural             'La Ni~3~ In~2~'
_chemical_formula_sum                    'In2.04 La Ni2.96'
_chemical_name_mineral                   ?
_chemical_compound_source                ?
_chemical_name_structure_type            YNi~2~Al~3~,hP18,191
_chemical_formula_weight                 544.6

# Bibliographic data

_publ_section_title                      'Crystal structure of LaNi~3~In~2~'
_journal_coden_ASTM                      INOMAF
_journal_name_full                       'Inorg. Mater.'
_journal_year                            1993
_journal_volume                          29
_journal_page_first                      1524
_journal_page_last                       ?
_journal_language                        English
loop_
 _publ_author_name
 _publ_author_address
'Zaremba V.I.'
;
Lviv Ivan Franko State University
Lviv
Ukraine
;
'Kalychak Y.M.'
;
Lviv Ivan Franko State University
Department of Inorganic Chemistry
Lviv
Ukraine
;
'Pecharskii V.K.'
;
Lviv Ivan Franko State University
Department of Inorganic Chemistry
Lviv
Ukraine
;
'Dmytrakh O.V.'
;
Lviv Ivan Franko State University
Lviv
Ukraine
;

# Standardized crystallographic data

_cell_length_a                           9.334
_cell_length_b                           9.334
_cell_length_c                           4.356
_cell_angle_alpha                        90
_cell_angle_beta                         90
_cell_angle_gamma                        120
_cell_volume                             328.7
_cell_formula_units_Z                    3
_space_group_IT_number                   191
_space_group_name_H-M_alt                'P 6/m m m'
loop_
 _space_group_symop_id
 _space_group_symop_operation_xyz
 1 'x, y, z'
 2 '-x+y, -x, -z'
 3 '-x+y, -x, z'
 4 '-x+y, y, -z'
 5 '-x+y, y, z'
 6 '-x, -x+y, -z'
 7 '-x, -x+y, z'
 8 '-x, -y, -z'
 9 '-x, -y, z'
 10 '-y, -x, -z'
 11 '-y, -x, z'
 12 '-y, x-y, -z'
 13 '-y, x-y, z'
 14 'x, x-y, -z'
 15 'x, x-y, z'
 16 'x, y, -z'
 17 'x-y, -y, -z'
 18 'x-y, -y, z'
 19 'x-y, x, -z'
 20 'x-y, x, z'
 21 'y, -x+y, -z'
 22 'y, -x+y, z'
 23 'y, x, -z'
 24 'y, x, z'
loop_
 _atom_type_symbol
 Ni
 In
 La
loop_
 _atom_site_label
 _atom_site_type_symbol
 _atom_site_symmetry_multiplicity
 _atom_site_Wyckoff_symbol
 _atom_site_fract_x
 _atom_site_fract_y
 _atom_site_fract_z
 _atom_site_occupancy
 Ni Ni 6 l 0.1783 0.3566 0 1
 In1 In 6 k 0.2839 0 0.5 0.52
 Ni2 Ni 6 k 0.2839 0 0.5 0.48
 In In 3 f 0.5 0 0 1
 La(2) La 2 d 0.333333 0.666667 0.5 1
 La(1) La 1 a 0 0 0 1


_exptl_crystal_colour                    ?
_exptl_crystal_density_meas              ?
_exptl_crystal_density_diffrn            8.26
_cell_measurement_temperature            ?
_cell_measurement_radiation              'X-rays, Mo Ka'
_cell_measurement_reflns_used            ?
_diffrn_ambient_temperature              ?
_diffrn_measurement_device               'automatic diffractometer'
_diffrn_measurement_device_type          ?
_diffrn_radiation_type                   'X-rays, Mo Ka'
_diffrn_reflns_number                    ?
_exptl_absorpt_coefficient_mu            32.217
_exptl_absorpt_correction_type           ?
_computing_structure_solution            'starting values from the literature'
_refine_ls_number_parameters             ?
_refine_ls_number_reflns                 ?
_refine_ls_R_factor_gt                   0.0196
_refine_ls_wR_factor_gt                  ?

# End of data set 309889

