##############################################################################
#                                                                            #
# Dy-Ga-Ni         # Dy21Ni7.7Ga6.3                                #  309835 #
#                                                                            #
##############################################################################
#                                                                            #
#                           Pearson's Crystal Data                           #
#      Crystal Structure Database for Inorganic Compounds (on DVD)           #
#                              Release 2023/24                               #
#                  Editors: Pierre Villars and Karin Cenzual                 #
#                                                                            #
#   Copyright (c) ASM International & Material Phases Data System (MPDS),    #
# Switzerland & National Institute for Materials Science (NIMS), Japan, 2023 #
#                   All rights reserved. Version 2023.07                     #
#                                                                            #
#   This copy of Pearson's Crystal Data is licensed to:                      #
#   Hunter College - City University of New York                             #
#                                                                            #
##############################################################################

data_309835
_audit_creation_date                     2024-02-24
_audit_creation_method
;
Pearson's Crystal Data browser
;
#_database_code_PCD                      309835
_database_code_PDF                       04-001-9874

# Entry summary

_chemical_formula_structural             'Dy~3~ Ni~1.25~ Ga~0.75~'
_chemical_formula_sum                    'Dy3 Ga0.75 Ni1.25'
_chemical_name_mineral                   ?
_chemical_compound_source                ?
_chemical_name_structure_type            Y~3~Rh~2~,tI140,140
_chemical_formula_weight                 613.2

# Bibliographic data

_publ_section_title
'Phase equilibria in the Dy-Ni-Ga system at 600 \%C'                          
_journal_coden_ASTM                      INOMAF
_journal_name_full                       'Inorg. Mater.'
_journal_year                            1996
_journal_volume                          32
_journal_page_first                      512
_journal_page_last                       515
_journal_language                        English
loop_
 _publ_author_name
 _publ_author_address
'Vasilechko L.O.'
;
Research and Production Association "Carat"
Scientific Research Institute of Materials
Lviv
Ukraine
;
'Grin Y.'
;
Lviv Ivan Franko State University
Department of Inorganic Chemistry
Lviv
Ukraine
;

# Standardized crystallographic data

_cell_length_a                           11.432
_cell_length_b                           11.432
_cell_length_c                           24.52
_cell_angle_alpha                        90
_cell_angle_beta                         90
_cell_angle_gamma                        90
_cell_volume                             3204.5
_cell_formula_units_Z                    28
_space_group_IT_number                   140
_space_group_name_H-M_alt                'I 4/m c m'
loop_
 _space_group_symop_id
 _space_group_symop_operation_xyz
 1 'x, y, z'
 2 '-x, -y, -z'
 3 '-x, -y, z'
 4 '-x, y, 1/2-z'
 5 '-x, y, 1/2+z'
 6 '-y, -x, 1/2-z'
 7 '-y, -x, 1/2+z'
 8 '-y, x, -z'
 9 '-y, x, z'
 10 'x, -y, 1/2-z'
 11 'x, -y, 1/2+z'
 12 'x, y, -z'
 13 'y, -x, -z'
 14 'y, -x, z'
 15 'y, x, 1/2-z'
 16 'y, x, 1/2+z'
 17 '1/2+x, 1/2+y, 1/2+z'
 18 '1/2-x, 1/2-y, 1/2-z'
 19 '1/2-x, 1/2-y, 1/2+z'
 20 '1/2-x, 1/2+y, 1-z'
 21 '1/2-x, 1/2+y, 1+z'
 22 '1/2-y, 1/2-x, 1-z'
 23 '1/2-y, 1/2-x, 1+z'
 24 '1/2-y, 1/2+x, 1/2-z'
 25 '1/2-y, 1/2+x, 1/2+z'
 26 '1/2+x, 1/2-y, 1-z'
 27 '1/2+x, 1/2-y, 1+z'
 28 '1/2+x, 1/2+y, 1/2-z'
 29 '1/2+y, 1/2-x, 1/2-z'
 30 '1/2+y, 1/2-x, 1/2+z'
 31 '1/2+y, 1/2+x, 1-z'
 32 '1/2+y, 1/2+x, 1+z'

# Atomic positions taken from type-defining entry

loop_
 _atom_type_symbol
 Dy
 Ni
 Ga
loop_
 _atom_site_label
 _atom_site_type_symbol
 _atom_site_symmetry_multiplicity
 _atom_site_Wyckoff_symbol
 _atom_site_fract_x
 _atom_site_fract_y
 _atom_site_fract_z
 _atom_site_occupancy
 Dy1 Dy 32 m 0.0799 0.2113 0.1935 1
 Dy2 Dy 32 m 0.2042 0.0757 0.0712 1
 Ni1A Ni 16 l 0.1553 0.6553 0.1885 0.625
 Ga1B Ga 16 l 0.1553 0.6553 0.1885 0.375
 Ni2A Ni 16 l 0.6792 0.1792 0.1063 0.625
 Ga2B Ga 16 l 0.6792 0.1792 0.1063 0.375
 Ni3A Ni 8 h 0.0960 0.5960 0 0.625
 Ga3B Ga 8 h 0.0960 0.5960 0 0.375
 Dy3 Dy 8 h 0.6517 0.1517 0 1
 Dy4 Dy 8 g 0 0.5 0.1122 1
 Ni4A Ni 8 f 0 0 0.1335 0.625
 Ga4B Ga 8 f 0 0 0.1335 0.375
 Ni5A Ni 4 c 0 0 0 0.625
 Ga5B Ga 4 c 0 0 0 0.375
 Dy5 Dy 4 b 0 0.5 0.25 1
 Ni6A Ni 4 a 0 0 0.25 0.625
 Ga6B Ga 4 a 0 0 0.25 0.375


_exptl_crystal_colour                    ?
_exptl_crystal_density_meas              ?
_exptl_crystal_density_diffrn            8.90
_cell_measurement_temperature            ?
_cell_measurement_radiation              'X-rays, Cr Ka'
_cell_measurement_reflns_used            ?
_diffrn_ambient_temperature              ?
_diffrn_measurement_device               'Debye-Scherrer film'
_diffrn_measurement_device_type          ?
_diffrn_radiation_type                   ?
_diffrn_reflns_number                    ?
_exptl_absorpt_coefficient_mu            ?
_exptl_absorpt_correction_type           ?
_computing_structure_solution            ?
_refine_ls_number_parameters             ?
_refine_ls_number_reflns                 ?
_refine_ls_R_factor_gt                   ?
_refine_ls_wR_factor_gt                  ?

# End of data set 309835

