##############################################################################
#                                                                            #
# Dy-Ga-Ni         # Dy3Ni2.8Ga8.2                                 #  309837 #
#                                                                            #
##############################################################################
#                                                                            #
#                           Pearson's Crystal Data                           #
#      Crystal Structure Database for Inorganic Compounds (on DVD)           #
#                              Release 2023/24                               #
#                  Editors: Pierre Villars and Karin Cenzual                 #
#                                                                            #
#   Copyright (c) ASM International & Material Phases Data System (MPDS),    #
# Switzerland & National Institute for Materials Science (NIMS), Japan, 2023 #
#                   All rights reserved. Version 2023.07                     #
#                                                                            #
#   This copy of Pearson's Crystal Data is licensed to:                      #
#   Hunter College - City University of New York                             #
#                                                                            #
##############################################################################

data_309837
_audit_creation_date                     2024-02-24
_audit_creation_method
;
Pearson's Crystal Data browser
;
#_database_code_PCD                      309837
_database_code_PDF                       04-001-9876

# Entry summary

_chemical_formula_structural             'Dy~3~ Ni~2.8~ Ga~8.2~'
_chemical_formula_sum                    'Dy3 Ga8.2 Ni2.8'
_chemical_name_mineral                   ?
_chemical_compound_source                ?
_chemical_name_structure_type            La~3~Al~11~,oI28,71
_chemical_formula_weight                 1223.6

# Bibliographic data

_publ_section_title
'Phase equilibria in the Dy-Ni-Ga system at 600 \%C'                          
_journal_coden_ASTM                      INOMAF
_journal_name_full                       'Inorg. Mater.'
_journal_year                            1996
_journal_volume                          32
_journal_page_first                      512
_journal_page_last                       515
_journal_language                        English
loop_
 _publ_author_name
 _publ_author_address
'Vasilechko L.O.'
;
Research and Production Association "Carat"
Scientific Research Institute of Materials
Lviv
Ukraine
;
'Grin Y.'
;
Lviv Ivan Franko State University
Department of Inorganic Chemistry
Lviv
Ukraine
;

# Standardized crystallographic data

_cell_length_a                           4.132
_cell_length_b                           9.438
_cell_length_c                           12.403
_cell_angle_alpha                        90
_cell_angle_beta                         90
_cell_angle_gamma                        90
_cell_volume                             483.7
_cell_formula_units_Z                    2
_space_group_IT_number                   71
_space_group_name_H-M_alt                'I m m m'
loop_
 _space_group_symop_id
 _space_group_symop_operation_xyz
 1 'x, y, z'
 2 '-x, -y, -z'
 3 '-x, -y, z'
 4 '-x, y, -z'
 5 '-x, y, z'
 6 'x, -y, -z'
 7 'x, -y, z'
 8 'x, y, -z'
 9 '1/2+x, 1/2+y, 1/2+z'
 10 '1/2-x, 1/2-y, 1/2-z'
 11 '1/2-x, 1/2-y, 1/2+z'
 12 '1/2-x, 1/2+y, 1/2-z'
 13 '1/2-x, 1/2+y, 1/2+z'
 14 '1/2+x, 1/2-y, 1/2-z'
 15 '1/2+x, 1/2-y, 1/2+z'
 16 '1/2+x, 1/2+y, 1/2-z'

# Atomic positions taken from type-defining entry

loop_
 _atom_type_symbol
 Ga
 Ni
 Dy
loop_
 _atom_site_label
 _atom_site_type_symbol
 _atom_site_symmetry_multiplicity
 _atom_site_Wyckoff_symbol
 _atom_site_fract_x
 _atom_site_fract_y
 _atom_site_fract_z
 _atom_site_occupancy
 Ga1A Ga 8 l 0 0.2729 0.1378 0.750
 Ni1B Ni 8 l 0 0.2729 0.1378 0.250
 Ga2A Ga 8 l 0 0.3683 0.3338 0.750
 Ni2B Ni 8 l 0 0.3683 0.3338 0.250
 Dy1 Dy 4 i 0 0 0.31688 1
 Ga3A Ga 4 h 0 0.2181 0.5 0.750
 Ni3B Ni 4 h 0 0.2181 0.5 0.250
 Ga4A Ga 2 d 0.5 0 0.5 0.750
 Ni4B Ni 2 d 0.5 0 0.5 0.250
 Dy2 Dy 2 a 0 0 0 1


_exptl_crystal_colour                    ?
_exptl_crystal_density_meas              ?
_exptl_crystal_density_diffrn            8.40
_cell_measurement_temperature            ?
_cell_measurement_radiation              'X-rays, Cr Ka'
_cell_measurement_reflns_used            ?
_diffrn_ambient_temperature              ?
_diffrn_measurement_device               'Debye-Scherrer film'
_diffrn_measurement_device_type          ?
_diffrn_radiation_type                   ?
_diffrn_reflns_number                    ?
_exptl_absorpt_coefficient_mu            ?
_exptl_absorpt_correction_type           ?
_computing_structure_solution            ?
_refine_ls_number_parameters             ?
_refine_ls_number_reflns                 ?
_refine_ls_R_factor_gt                   ?
_refine_ls_wR_factor_gt                  ?

# End of data set 309837

