##############################################################################
#                                                                            #
# Fe-La-Si         # LaFe9Si4                                      #  311796 #
#                                                                            #
##############################################################################
#                                                                            #
#                           Pearson's Crystal Data                           #
#      Crystal Structure Database for Inorganic Compounds (on DVD)           #
#                              Release 2023/24                               #
#                  Editors: Pierre Villars and Karin Cenzual                 #
#                                                                            #
#   Copyright (c) ASM International & Material Phases Data System (MPDS),    #
# Switzerland & National Institute for Materials Science (NIMS), Japan, 2023 #
#                   All rights reserved. Version 2023.07                     #
#                                                                            #
#   This copy of Pearson's Crystal Data is licensed to:                      #
#   Hunter College - City University of New York                             #
#                                                                            #
##############################################################################

data_311796
_audit_creation_date                     2024-02-24
_audit_creation_method
;
Pearson's Crystal Data browser
;
#_database_code_PCD                      311796
_database_code_PDF                       04-002-1303

# Entry summary

_chemical_formula_structural             'La Fe~9~ Si~4~'
_chemical_formula_sum                    'Fe9 La Si4'
_chemical_name_mineral                   ?
_chemical_compound_source                ?
_chemical_name_structure_type            LaFe~9~Si~4~,tI56,140
_chemical_formula_weight                 753.9

# Bibliographic data

_publ_section_title
'Structure of LaFe~9~Si~4~ intermetallic compound'                            
_journal_coden_ASTM                      JAPIAU
_journal_name_full                       'J. Appl. Phys.'
_journal_year                            1994
_journal_volume                          76
_journal_page_first                      4095
_journal_page_last                       4098
_journal_language                        English
loop_
 _publ_author_name
 _publ_author_address
'Tang W.'
;
Chinese Academy of Sciences
Institute of Physics
Beijing
China
;
'Liang J.'
;
Chinese Academy of Sciences
Institute of Physics
Beijing
China
;
'Chen X.'
;
Chinese Academy of Sciences
Institute of Physics
Beijing
China
;
'Rao G.'
;
Chinese Academy of Sciences
Institute of Physics
Beijing
China
;

# Standardized crystallographic data

_cell_length_a                           7.932
_cell_length_b                           7.932
_cell_length_c                           11.677
_cell_angle_alpha                        90
_cell_angle_beta                         90
_cell_angle_gamma                        90
_cell_volume                             734.7
_cell_formula_units_Z                    4
_space_group_IT_number                   140
_space_group_name_H-M_alt                'I 4/m c m'
loop_
 _space_group_symop_id
 _space_group_symop_operation_xyz
 1 'x, y, z'
 2 '-x, -y, -z'
 3 '-x, -y, z'
 4 '-x, y, 1/2-z'
 5 '-x, y, 1/2+z'
 6 '-y, -x, 1/2-z'
 7 '-y, -x, 1/2+z'
 8 '-y, x, -z'
 9 '-y, x, z'
 10 'x, -y, 1/2-z'
 11 'x, -y, 1/2+z'
 12 'x, y, -z'
 13 'y, -x, -z'
 14 'y, -x, z'
 15 'y, x, 1/2-z'
 16 'y, x, 1/2+z'
 17 '1/2+x, 1/2+y, 1/2+z'
 18 '1/2-x, 1/2-y, 1/2-z'
 19 '1/2-x, 1/2-y, 1/2+z'
 20 '1/2-x, 1/2+y, 1-z'
 21 '1/2-x, 1/2+y, 1+z'
 22 '1/2-y, 1/2-x, 1-z'
 23 '1/2-y, 1/2-x, 1+z'
 24 '1/2-y, 1/2+x, 1/2-z'
 25 '1/2-y, 1/2+x, 1/2+z'
 26 '1/2+x, 1/2-y, 1-z'
 27 '1/2+x, 1/2-y, 1+z'
 28 '1/2+x, 1/2+y, 1/2-z'
 29 '1/2+y, 1/2-x, 1/2-z'
 30 '1/2+y, 1/2-x, 1/2+z'
 31 '1/2+y, 1/2+x, 1-z'
 32 '1/2+y, 1/2+x, 1+z'
loop_
 _atom_type_symbol
 Si
 Fe
 La
loop_
 _atom_site_label
 _atom_site_type_symbol
 _atom_site_symmetry_multiplicity
 _atom_site_Wyckoff_symbol
 _atom_site_fract_x
 _atom_site_fract_y
 _atom_site_fract_z
 _atom_site_occupancy
 Si Si 16 l 0.1761 0.6761 0.1213 1
 Fe(1) Fe 16 l 0.6202 0.1202 0.179 1
 Fe(2) Fe 16 k 0.0647 0.2007 0 1
 Fe(3) Fe 4 d 0 0.5 0 1
 La La 4 a 0 0 0.25 1


_exptl_crystal_colour                    ?
_exptl_crystal_density_meas              ?
_exptl_crystal_density_diffrn            6.82
_cell_measurement_temperature            ?
_cell_measurement_radiation              'X-rays, Fe Ka'
_cell_measurement_wavelength             1.9373
_pd_proc_wavelength                      1.9373
_cell_measurement_reflns_used            ?
_diffrn_ambient_temperature              ?
_diffrn_measurement_device               'automatic diffractometer'
_diffrn_measurement_device_type          ?
_diffrn_radiation_type                   'X-rays, Cu Ka'
_diffrn_radiation_wavelength             1.5405
_diffrn_reflns_number                    ?
_exptl_absorpt_coefficient_mu            ?
_exptl_absorpt_correction_type           ?
_computing_structure_solution            'starting values from the literature'
_refine_ls_number_parameters             ?
_refine_ls_number_reflns                 ?
_refine_ls_R_factor_gt                   ?
_refine_ls_wR_factor_gt                  ?
_pd_proc_ls_proof_R_factor               0.098
_pd_proc_ls_proof_wR_factor              0.126
_refine_ls_R_I_factor                    ?

# Published diffraction lines

loop_
 _refln_index_h
 _refln_index_k
 _refln_index_l
 _refln_d_spacing
 _refln_intensity_meas
 1 1 2 4.062 5
 2 0 0 3.983 12
 2 1 1 3.406 9
 2 0 2 3.293 12
 0 0 4 2.93 15
 2 2 0 2.813 4
 1 1 4 2.598 27
 2 2 2 2.536 28
 3 1 0 2.517 18
 2 0 4 2.359 31
 3 1 2 2.312 100
 2 1 5 1.956 40
 3 2 3 1.921 48
 4 1 1 1.904 30
 3 3 0 1.875 5
 1 1 6 1.844 14
 3 3 2 1.785 10
 4 2 0 1.779 14
 4 0 4 1.644 16
 2 2 6 1.603 7
 5 1 0 1.56 8
 3 1 6 1.542 5
 4 2 4 1.519 7
 5 1 2 1.503 5
 1 1 8 1.416 7
 4 4 0 1.402 5
 4 0 6 1.392 6
 5 1 4 1.376 6
 4 4 2 1.367 4
 3 3 6 1.348 5
 2 3 7 1.329 2
 0 6 0 1.322 2
 1 6 1 1.296 1
 2 2 8 1.295 1
 0 6 2 1.29 1
 4 4 4 1.264 2
 1 4 7 1.26 5
 2 6 0 1.254 3
 2 5 5 1.246 5
 1 6 3 1.236 5

# End of data set 311796

