##############################################################################
#                                                                            #
# Co-Si-Th         # ThCo9Si2                                      #  311961 #
#                                                                            #
##############################################################################
#                                                                            #
#                           Pearson's Crystal Data                           #
#      Crystal Structure Database for Inorganic Compounds (on DVD)           #
#                              Release 2023/24                               #
#                  Editors: Pierre Villars and Karin Cenzual                 #
#                                                                            #
#   Copyright (c) ASM International & Material Phases Data System (MPDS),    #
# Switzerland & National Institute for Materials Science (NIMS), Japan, 2023 #
#                   All rights reserved. Version 2023.07                     #
#                                                                            #
#   This copy of Pearson's Crystal Data is licensed to:                      #
#   Hunter College - City University of New York                             #
#                                                                            #
##############################################################################

data_311961
_audit_creation_date                     2024-02-24
_audit_creation_method
;
Pearson's Crystal Data browser
;
#_database_code_PCD                      311961
_database_code_PDF                       04-002-1433

# Entry summary

_chemical_formula_structural             'Th Co~9~ Si~2~'
_chemical_formula_sum                    'Co9 Si2 Th'
_chemical_name_mineral                   ?
_chemical_compound_source                ?
_chemical_name_structure_type            SmCo~9~Si~2~,tI48,141
_chemical_formula_weight                 818.6

# Bibliographic data

_publ_section_title
'Crystal structure and the magnetic properties of the compound ThCo~9~Si~2~'  
_journal_coden_ASTM                      JMMMDC
_journal_name_full                       'J. Magn. Magn. Mater.'
_journal_year                            1996
_journal_volume                          152
_journal_page_first                      341
_journal_page_last                       344
_journal_language                        English
loop_
 _publ_author_name
 _publ_author_address
'Moze O.'
;
Parma University (UNIPR)
Dipartimento di Fisica
Parma
Italy
;
'Bruck E.'
;
Amsterdam University
Van der Waals-Zeeman Laboratorium
Amsterdam
Netherlands
;
'De Boer F.R.'
;
Amsterdam University
Van der Waals-Zeeman Laboratorium
Amsterdam
Netherlands
;
'Buschow K.H.J.'
;
Amsterdam University
Van der Waals-Zeeman Laboratorium
Amsterdam
Netherlands
;

# Standardized crystallographic data

_cell_length_a                           9.7914
_cell_length_b                           9.7914
_cell_length_c                           6.3138
_cell_angle_alpha                        90
_cell_angle_beta                         90
_cell_angle_gamma                        90
_cell_volume                             605.3
_cell_formula_units_Z                    4
_space_group_IT_number                   141
_space_group_name_H-M_alt                'I 41/a m d (origin choice 2)'
loop_
 _space_group_symop_id
 _space_group_symop_operation_xyz
 1 'x, y, z'
 2 '-x, 1/2-y, z'
 3 '-x, -y, -z'
 4 '-x, 1/2+y, -z'
 5 '-x, y, z'
 6 '1/4-y, 1/4-x, -1/4-z'
 7 '1/4-y, -1/4+x, 1/4+z'
 8 '-1/4-y, 1/4-x, -1/4+z'
 9 '-1/4-y, -1/4+x, 1/4-z'
 10 'x, 1/2-y, z'
 11 'x, -y, -z'
 12 'x, 1/2+y, -z'
 13 '1/4+y, 1/4-x, -1/4+z'
 14 '1/4+y, -1/4+x, 1/4-z'
 15 '-1/4+y, 1/4-x, -1/4-z'
 16 '-1/4+y, -1/4+x, 1/4+z'
 17 '1/2+x, 1/2+y, 1/2+z'
 18 '1/2-x, 1-y, 1/2+z'
 19 '1/2-x, 1/2-y, 1/2-z'
 20 '1/2-x, 1+y, 1/2-z'
 21 '1/2-x, 1/2+y, 1/2+z'
 22 '3/4-y, 3/4-x, 1/4-z'
 23 '3/4-y, 1/4+x, 3/4+z'
 24 '1/4-y, 3/4-x, 1/4+z'
 25 '1/4-y, 1/4+x, 3/4-z'
 26 '1/2+x, 1-y, 1/2+z'
 27 '1/2+x, 1/2-y, 1/2-z'
 28 '1/2+x, 1+y, 1/2-z'
 29 '3/4+y, 3/4-x, 1/4+z'
 30 '3/4+y, 1/4+x, 3/4-z'
 31 '1/4+y, 3/4-x, 1/4-z'
 32 '1/4+y, 1/4+x, 3/4+z'
loop_
 _atom_type_symbol
 Co
 Si
 Th
loop_
 _atom_site_label
 _atom_site_type_symbol
 _atom_site_symmetry_multiplicity
 _atom_site_Wyckoff_symbol
 _atom_site_fract_x
 _atom_site_fract_y
 _atom_site_fract_z
 _atom_site_occupancy
 Co2 Co 32 i 0.20624 0.12544 0.06376 1
 Si Si 8 c 0 0 0 1
 Th Th 4 b 0 0.25 0.375 1
 Co1 Co 4 a 0 0.75 0.125 1


_exptl_crystal_colour                    ?
_exptl_crystal_density_meas              ?
_exptl_crystal_density_diffrn            8.98
_cell_measurement_temperature            295
_cell_measurement_radiation              'neutrons, time-of-flight'
_cell_measurement_reflns_used            ?
_diffrn_ambient_temperature              295
_diffrn_measurement_device               'automatic diffractometer'
_diffrn_measurement_device_type
;
United Kingdom, Chilton-Didcot, Rutherford Appleton Laboratory, ISIS Facility, POLARIS
;
_diffrn_radiation_type                   'neutrons, time-of-flight'
_diffrn_reflns_number                    ?
_exptl_absorpt_coefficient_mu            ?
_exptl_absorpt_correction_type           ?
_computing_structure_solution            'starting values from the literature'
_refine_ls_number_parameters             ?
_refine_ls_number_reflns                 ?
_refine_ls_R_factor_gt                   ?
_refine_ls_wR_factor_gt                  ?
_pd_proc_ls_proof_R_factor               0.0529
_pd_proc_ls_proof_wR_factor              0.0650
_refine_ls_R_I_factor                    ?

# End of data set 311961

