##############################################################################
#                                                                            #
# Fe-Nd-Sb         # Nd6Fe13Sb                                     #  312335 #
#                                                                            #
##############################################################################
#                                                                            #
#                           Pearson's Crystal Data                           #
#      Crystal Structure Database for Inorganic Compounds (on DVD)           #
#                              Release 2023/24                               #
#                  Editors: Pierre Villars and Karin Cenzual                 #
#                                                                            #
#   Copyright (c) ASM International & Material Phases Data System (MPDS),    #
# Switzerland & National Institute for Materials Science (NIMS), Japan, 2023 #
#                   All rights reserved. Version 2023.07                     #
#                                                                            #
#   This copy of Pearson's Crystal Data is licensed to:                      #
#   Hunter College - City University of New York                             #
#                                                                            #
##############################################################################

data_312335
_audit_creation_date                     2024-02-24
_audit_creation_method
;
Pearson's Crystal Data browser
;
#_database_code_PCD                      312335
_database_code_PDF                       04-002-1754

# Entry summary

_chemical_formula_structural             'Nd~6~ Fe~13~ Sb'
_chemical_formula_sum                    'Fe13 Nd6 Sb'
_chemical_name_mineral                   ?
_chemical_compound_source                ?
_chemical_name_structure_type
La~6~Co~9~(Co~0.5~Ga~0.5~)~4~Ga,tI80,140                                      
_chemical_formula_weight                 1713.2

# Bibliographic data

_publ_section_title
'Hydrogen induced metamagnetism in R~6~Fe~13~X compounds'                     
_journal_coden_ASTM                      JMMMDC
_journal_name_full                       'J. Magn. Magn. Mater.'
_journal_year                            1994
_journal_volume                          129
_journal_page_first                      87
_journal_page_last                       97
_journal_language                        English
loop_
 _publ_author_name
 _publ_author_address
'Coey J.M.D.'
;
Trinity College Dublin (Dublin University)
Department of Pure and Applied Physics
Dublin
Ireland
;
'Qi Q.'
;
Trinity College Dublin (Dublin University)
Department of Pure and Applied Physics
Dublin
Ireland
;
'Knoch K.G.'
;
Trinity College Dublin (Dublin University)
Department of Pure and Applied Physics
Dublin
Ireland
;
'Leithe Jasper A.'
;
Vienna University
Institut fur Physikalische Chemie
Vienna
Austria
;
'Rogl P.'
;
Vienna University
Institut fur Physikalische Chemie
Vienna
Austria
;

# Standardized crystallographic data

_cell_length_a                           8.0903
_cell_length_b                           8.0903
_cell_length_c                           23.1923
_cell_angle_alpha                        90
_cell_angle_beta                         90
_cell_angle_gamma                        90
_cell_volume                             1518
_cell_formula_units_Z                    4
_space_group_IT_number                   140
_space_group_name_H-M_alt                'I 4/m c m'
loop_
 _space_group_symop_id
 _space_group_symop_operation_xyz
 1 'x, y, z'
 2 '-x, -y, -z'
 3 '-x, -y, z'
 4 '-x, y, 1/2-z'
 5 '-x, y, 1/2+z'
 6 '-y, -x, 1/2-z'
 7 '-y, -x, 1/2+z'
 8 '-y, x, -z'
 9 '-y, x, z'
 10 'x, -y, 1/2-z'
 11 'x, -y, 1/2+z'
 12 'x, y, -z'
 13 'y, -x, -z'
 14 'y, -x, z'
 15 'y, x, 1/2-z'
 16 'y, x, 1/2+z'
 17 '1/2+x, 1/2+y, 1/2+z'
 18 '1/2-x, 1/2-y, 1/2-z'
 19 '1/2-x, 1/2-y, 1/2+z'
 20 '1/2-x, 1/2+y, 1-z'
 21 '1/2-x, 1/2+y, 1+z'
 22 '1/2-y, 1/2-x, 1-z'
 23 '1/2-y, 1/2-x, 1+z'
 24 '1/2-y, 1/2+x, 1/2-z'
 25 '1/2-y, 1/2+x, 1/2+z'
 26 '1/2+x, 1/2-y, 1-z'
 27 '1/2+x, 1/2-y, 1+z'
 28 '1/2+x, 1/2+y, 1/2-z'
 29 '1/2+y, 1/2-x, 1/2-z'
 30 '1/2+y, 1/2-x, 1/2+z'
 31 '1/2+y, 1/2+x, 1-z'
 32 '1/2+y, 1/2+x, 1+z'
loop_
 _atom_type_symbol
 Nd
 Fe
 Sb
loop_
 _atom_site_label
 _atom_site_type_symbol
 _atom_site_symmetry_multiplicity
 _atom_site_Wyckoff_symbol
 _atom_site_fract_x
 _atom_site_fract_y
 _atom_site_fract_z
 _atom_site_occupancy
 Nd1 Nd 16 l 0.1627 0.6627 0.1872 1
 Fe1 Fe 16 l 0.1785 0.6785 0.0599 1
 Fe3 Fe 16 l 0.6141 0.1141 0.0952 1
 Fe2 Fe 16 k 0.0665 0.2089 0 1
 Nd2 Nd 8 f 0 0 0.106 1
 Fe4 Fe 4 d 0 0.5 0 1
 Sb1 Sb 4 a 0 0 0.25 1


_exptl_crystal_colour                    ?
_exptl_crystal_density_meas              ?
_exptl_crystal_density_diffrn            7.50
_cell_measurement_temperature            293
_cell_measurement_radiation              'X-rays, Mo Ka'
_cell_measurement_wavelength             0.7107
_cell_measurement_reflns_used            ?
_diffrn_ambient_temperature              293
_diffrn_measurement_device               'automatic diffractometer'
_diffrn_measurement_device_type          STOE-Nicolet
_diffrn_radiation_type                   'X-rays, Mo Ka'
_diffrn_radiation_wavelength             0.7107
_diffrn_reflns_number                    ?
_exptl_absorpt_coefficient_mu            34.23
_exptl_absorpt_correction_type           ?
_computing_structure_solution            'Patterson and Fourier synthesis'
_refine_ls_number_parameters             33
_refine_ls_number_reflns                 623
_refine_ls_R_factor_gt                   0.036
_refine_ls_wR_factor_gt                  0.028

# End of data set 312335

