##############################################################################
#                                                                            #
# La-Rh-Sn         # La3Rh4Sn13 ht                                 #  379836 #
#                                                                            #
##############################################################################
#                                                                            #
#                           Pearson's Crystal Data                           #
#      Crystal Structure Database for Inorganic Compounds (on DVD)           #
#                              Release 2023/24                               #
#                  Editors: Pierre Villars and Karin Cenzual                 #
#                                                                            #
#   Copyright (c) ASM International & Material Phases Data System (MPDS),    #
# Switzerland & National Institute for Materials Science (NIMS), Japan, 2023 #
#                   All rights reserved. Version 2023.07                     #
#                                                                            #
#   This copy of Pearson's Crystal Data is licensed to:                      #
#   Hunter College - City University of New York                             #
#                                                                            #
##############################################################################

data_379836
_audit_creation_date                     2024-02-25
_audit_creation_method
;
Pearson's Crystal Data browser
;
#_database_code_PCD                      379836
_database_code_PDF                       04-008-9744

# Entry summary

_chemical_formula_structural             'La~3~ Rh~4~ Sn~13~'
_chemical_formula_sum                    'La3 Rh4 Sn13'
_chemical_name_mineral                   ?
_chemical_compound_source                ?
_chemical_name_structure_type            La~3~Rh~4~Sn~13~,cI320,214
_chemical_formula_weight                 2371.3

# Bibliographic data

_publ_section_title
;
Synchrotron X-ray powder diffraction study of the phase I' compound: SnLa~3~Rh~4~Sn~12~
;
_journal_coden_ASTM                      SSCOA4
_journal_name_full                       'Solid State Commun.'
_journal_year                            1991
_journal_volume                          78
_journal_page_first                      359
_journal_page_last                       366
_journal_language                        English
loop_
 _publ_author_name
 _publ_author_address
'Bordet P.'
;
National Center for Scientific Research (CNRS)
Laboratoire de Cristallographie
Grenoble
France
;
'Cox D.E.'
;
Brookhaven National Laboratory (BNL)
Upton
U.S.A. New York
;
'Espinosa G.P.'
;
AT&T Bell Laboratories Inc.
Murray Hill
U.S.A. New Jersey
;
'Hodeau J.L.'
;
National Center for Scientific Research (CNRS)
Laboratoire de Cristallographie
Grenoble
France
;
'Marezio M.'
;
National Center for Scientific Research (CNRS)
Laboratoire de Cristallographie
Grenoble
France
;

# Standardized crystallographic data

_cell_length_a                           19.4918
_cell_length_b                           19.4918
_cell_length_c                           19.4918
_cell_angle_alpha                        90
_cell_angle_beta                         90
_cell_angle_gamma                        90
_cell_volume                             7405.5
_cell_formula_units_Z                    16
_space_group_IT_number                   214
_space_group_name_H-M_alt                'I 41 3 2'
loop_
 _space_group_symop_id
 _space_group_symop_operation_xyz
 1 'x, y, z'
 2 '1/2-x, y, -z'
 3 '1/4-x, 1/4-z, 1/4-y'
 4 '1/4-x, -1/4+z, 1/4+y'
 5 '-x, 1/2-y, z'
 6 '1/2-y, z, -x'
 7 '1/4-y, 1/4-x, 1/4-z'
 8 '1/4-y, -1/4+x, 1/4+z'
 9 '-y, 1/2-z, x'
 10 '1/2-z, x, -y'
 11 '1/4-z, 1/4-y, 1/4-x'
 12 '1/4-z, -1/4+y, 1/4+x'
 13 '-z, 1/2-x, y'
 14 '1/4+x, 1/4-z, -1/4+y'
 15 'x, -y, 1/2-z'
 16 '-1/4+x, 1/4+z, 1/4-y'
 17 '1/4+y, 1/4-x, -1/4+z'
 18 'y, -z, 1/2-x'
 19 'y, z, x'
 20 '-1/4+y, 1/4+x, 1/4-z'
 21 '1/4+z, 1/4-y, -1/4+x'
 22 'z, -x, 1/2-y'
 23 'z, x, y'
 24 '-1/4+z, 1/4+y, 1/4-x'
 25 '1/2+x, 1/2+y, 1/2+z'
 26 '1-x, 1/2+y, 1/2-z'
 27 '3/4-x, 3/4-z, 3/4-y'
 28 '3/4-x, 1/4+z, 3/4+y'
 29 '1/2-x, 1-y, 1/2+z'
 30 '1-y, 1/2+z, 1/2-x'
 31 '3/4-y, 3/4-x, 3/4-z'
 32 '3/4-y, 1/4+x, 3/4+z'
 33 '1/2-y, 1-z, 1/2+x'
 34 '1-z, 1/2+x, 1/2-y'
 35 '3/4-z, 3/4-y, 3/4-x'
 36 '3/4-z, 1/4+y, 3/4+x'
 37 '1/2-z, 1-x, 1/2+y'
 38 '3/4+x, 3/4-z, 1/4+y'
 39 '1/2+x, 1/2-y, 1-z'
 40 '1/4+x, 3/4+z, 3/4-y'
 41 '3/4+y, 3/4-x, 1/4+z'
 42 '1/2+y, 1/2-z, 1-x'
 43 '1/2+y, 1/2+z, 1/2+x'
 44 '1/4+y, 3/4+x, 3/4-z'
 45 '3/4+z, 3/4-y, 1/4+x'
 46 '1/2+z, 1/2-x, 1-y'
 47 '1/2+z, 1/2+x, 1/2+y'
 48 '1/4+z, 3/4+y, 3/4-x'
loop_
 _atom_type_symbol
 Sn
 La
 Rh
loop_
 _atom_site_label
 _atom_site_type_symbol
 _atom_site_symmetry_multiplicity
 _atom_site_Wyckoff_symbol
 _atom_site_fract_x
 _atom_site_fract_y
 _atom_site_fract_z
 _atom_site_occupancy
 Sn(24) Sn 48 i 0.0003 0.1432 0.4257 1
 Sn(21) Sn 48 i 0.001 0.1532 0.0773 1
 Sn(23) Sn 48 i 0.0924 0.2497 0.329 1
 Sn(22) Sn 48 i 0.251 0.3281 0.4039 1
 La(1) La 24 h 0.125 0.2495 0.0005 1
 Rh(3) Rh 24 h 0.125 0.625 0.625 1
 Rh(4) Rh 24 g 0.125 0.125 0.375 1
 La(2) La 24 g 0.125 0.2495 0.4995 1
 Sn(11) Sn 16 e 0.0011 0.0011 0.0011 1
 Rh(2) Rh 8 b 0.875 0.875 0.875 1
 Rh(1) Rh 8 a 0.125 0.125 0.125 1


_exptl_crystal_colour                    ?
_exptl_crystal_density_meas              ?
_exptl_crystal_density_diffrn            8.51
_cell_measurement_temperature            ?
_cell_measurement_radiation              'X-rays, synchrotron'
_cell_measurement_wavelength             1.3233
_pd_proc_wavelength                      1.3233
_cell_measurement_reflns_used            ?
_diffrn_ambient_temperature              ?
_diffrn_measurement_device               diffractometer
_diffrn_measurement_device_type
;
U.S.A. New York, Brookhaven National Laboratory, National Synchrotron Light Source NSLS, X13A
;
_diffrn_radiation_type                   'X-rays, synchrotron'
_diffrn_radiation_wavelength             1.3233
_diffrn_reflns_number                    ?
_diffrn_reflns_theta_min                 5
_diffrn_reflns_theta_max                 35
_pd_proc_2theta_range_min                10
_pd_proc_2theta_range_max                70
_exptl_absorpt_coefficient_mu            ?
_exptl_absorpt_correction_type           ?
_computing_structure_solution            'starting values from the literature'
_refine_ls_number_parameters             ?
_refine_ls_number_reflns                 ?
_refine_ls_R_factor_gt                   ?
_refine_ls_wR_factor_gt                  ?
_pd_proc_ls_proof_R_factor               0.2805
_pd_proc_ls_proof_wR_factor              0.0848
_refine_ls_R_I_factor                    ?

# End of data set 379836

