##############################################################################
#                                                                            #
# Fe-Ga-U          # UFe6Ga6                                       #  381016 #
#                                                                            #
##############################################################################
#                                                                            #
#                           Pearson's Crystal Data                           #
#      Crystal Structure Database for Inorganic Compounds (on DVD)           #
#                              Release 2023/24                               #
#                  Editors: Pierre Villars and Karin Cenzual                 #
#                                                                            #
#   Copyright (c) ASM International & Material Phases Data System (MPDS),    #
# Switzerland & National Institute for Materials Science (NIMS), Japan, 2023 #
#                   All rights reserved. Version 2023.07                     #
#                                                                            #
#   This copy of Pearson's Crystal Data is licensed to:                      #
#   Hunter College - City University of New York                             #
#                                                                            #
##############################################################################

data_381016
_audit_creation_date                     2024-02-24
_audit_creation_method
;
Pearson's Crystal Data browser
;
#_database_code_PCD                      381016
_database_code_PDF                       04-002-7416

# Entry summary

_chemical_formula_structural             'U Fe~6~ Ga~6~'
_chemical_formula_sum                    'Fe6 Ga6 U'
_chemical_name_mineral                   ?
_chemical_compound_source                ?
_chemical_name_structure_type            ScFe~6~Ga~6~,oI26,71
_chemical_formula_weight                 991.4
_chemical_melting_point                  1293

# Bibliographic data

_publ_section_title
'A new magnetic intermetallic compound: UFe~6~Ga~6~'                          
_journal_coden_ASTM                      JMMMDC
_journal_name_full                       'J. Magn. Magn. Mater.'
_journal_year                            1996
_journal_volume                          157/158
_journal_page_first                      692
_journal_page_last                       693
_journal_language                        English
loop_
 _publ_author_name
 _publ_author_address
'Goncalves A.P.'
;
Technological and Nuclear Institute (ITN)
Departamento de Quimica
Lisbon
Portugal
;
'Almeida M.'
;
Technological and Nuclear Institute (ITN)
Departamento de Quimica
Lisbon
Portugal
;
'Amaro A.'
;
Lisbon University (ULisboa)
Departamento de Fisica
Lisbon
Portugal
;
'Godinho M.'
;
Lisbon University (ULisboa)
Departamento de Fisica
Lisbon
Portugal
;
'Paixao J.A.'
;
Coimbra University
Departamento de Fisica
Coimbra
Portugal
;
'Spirlet J.C.'
;
European Commission Joint Research Center (JRC)
Institute for Transuranium Elements
Karlsruhe
Germany
;

# Standardized crystallographic data

_cell_length_a                           5.045
_cell_length_b                           8.533
_cell_length_c                           8.649
_cell_angle_alpha                        90
_cell_angle_beta                         90
_cell_angle_gamma                        90
_cell_volume                             372.3
_cell_formula_units_Z                    2
_space_group_IT_number                   71
_space_group_name_H-M_alt                'I m m m'
loop_
 _space_group_symop_id
 _space_group_symop_operation_xyz
 1 'x, y, z'
 2 '-x, -y, -z'
 3 '-x, -y, z'
 4 '-x, y, -z'
 5 '-x, y, z'
 6 'x, -y, -z'
 7 'x, -y, z'
 8 'x, y, -z'
 9 '1/2+x, 1/2+y, 1/2+z'
 10 '1/2-x, 1/2-y, 1/2-z'
 11 '1/2-x, 1/2-y, 1/2+z'
 12 '1/2-x, 1/2+y, 1/2-z'
 13 '1/2-x, 1/2+y, 1/2+z'
 14 '1/2+x, 1/2-y, 1/2-z'
 15 '1/2+x, 1/2-y, 1/2+z'
 16 '1/2+x, 1/2+y, 1/2-z'

# Atomic positions taken from type-defining entry

loop_
 _atom_type_symbol
 Fe
 Ga
 U
loop_
 _atom_site_label
 _atom_site_type_symbol
 _atom_site_symmetry_multiplicity
 _atom_site_Wyckoff_symbol
 _atom_site_fract_x
 _atom_site_fract_y
 _atom_site_fract_z
 _atom_site_occupancy
 Fe1 Fe 8 k 0.25 0.25 0.25 1
 Ga1 Ga 4 j 0.5 0 0.165 1
 Ga2 Ga 4 i 0 0 0.345 1
 Fe2 Fe 4 h 0 0.257 0.5 1
 Ga3 Ga 4 g 0 0.336 0 1
 U1 U 2 a 0 0 0 1


_exptl_crystal_colour                    ?
_exptl_crystal_density_meas              ?
_exptl_crystal_density_diffrn            8.84
_cell_measurement_temperature            ?
_cell_measurement_radiation              X-rays
_cell_measurement_reflns_used            ?
_diffrn_ambient_temperature              ?
_diffrn_measurement_device               'automatic diffractometer'
_diffrn_measurement_device_type          ?
_diffrn_radiation_type                   ?
_diffrn_reflns_number                    ?
_exptl_absorpt_coefficient_mu            ?
_exptl_absorpt_correction_type           ?
_computing_structure_solution            ?
_refine_ls_number_parameters             ?
_refine_ls_number_reflns                 ?
_refine_ls_R_factor_gt                   ?
_refine_ls_wR_factor_gt                  ?

# End of data set 381016

