##############################################################################
#                                                                            #
# Fe-Si-Tm         # Tm2Fe3Si5                                     #  381270 #
#                                                                            #
##############################################################################
#                                                                            #
#                           Pearson's Crystal Data                           #
#      Crystal Structure Database for Inorganic Compounds (on DVD)           #
#                              Release 2023/24                               #
#                  Editors: Pierre Villars and Karin Cenzual                 #
#                                                                            #
#   Copyright (c) ASM International & Material Phases Data System (MPDS),    #
# Switzerland & National Institute for Materials Science (NIMS), Japan, 2023 #
#                   All rights reserved. Version 2023.07                     #
#                                                                            #
#   This copy of Pearson's Crystal Data is licensed to:                      #
#   Hunter College - City University of New York                             #
#                                                                            #
##############################################################################

data_381270
_audit_creation_date                     2024-02-24
_audit_creation_method
;
Pearson's Crystal Data browser
;
#_database_code_PCD                      381270
_database_code_PDF                       04-002-7652

# Entry summary

_chemical_formula_structural             'Tm~2~ Fe~3~ Si~5~'
_chemical_formula_sum                    'Fe3 Si5 Tm2'
_chemical_name_mineral                   ?
_chemical_compound_source                ?
_chemical_name_structure_type            U~2~Mn~3~Si~5~,tP40,128
_chemical_formula_weight                 645.8

# Bibliographic data

_publ_section_title
'Neutron diffraction study of magnetically ordered Tm~2~Fe~3~Si~5~'           
_journal_coden_ASTM                      PRBMDO
_journal_name_full
'Phys. Rev. B: Condens. Matter Mater. Phys.'                                  
_journal_year                            1985
_journal_volume                          32
_journal_page_first                      3103
_journal_page_last                       3106
_journal_language                        English
loop_
 _publ_author_name
 _publ_author_address
'Moodenbaugh A.R.'
;
Brookhaven National Laboratory (BNL)
Department of Physics
Upton
U.S.A. New York
;
'Cox D.E.'
;
Brookhaven National Laboratory (BNL)
Department of Physics
Upton
U.S.A. New York
;
'Vining C.B.'
;
Iowa State University of Science and Technology (ISU)
Department of Physics
Ames
U.S.A. Iowa
;

# Standardized crystallographic data

_cell_length_a                           10.532
_cell_length_b                           10.532
_cell_length_c                           5.388
_cell_angle_alpha                        90
_cell_angle_beta                         90
_cell_angle_gamma                        90
_cell_volume                             597.7
_cell_formula_units_Z                    4
_space_group_IT_number                   128
_space_group_name_H-M_alt                'P 4/m n c'
loop_
 _space_group_symop_id
 _space_group_symop_operation_xyz
 1 'x, y, z'
 2 '1/2-x, 1/2+y, 1/2-z'
 3 '1/2-x, 1/2+y, 1/2+z'
 4 '-x, -y, -z'
 5 '-x, -y, z'
 6 '1/2-y, 1/2-x, 1/2-z'
 7 '1/2-y, 1/2-x, 1/2+z'
 8 '-y, x, -z'
 9 '-y, x, z'
 10 '1/2+x, 1/2-y, 1/2-z'
 11 '1/2+x, 1/2-y, 1/2+z'
 12 'x, y, -z'
 13 '1/2+y, 1/2+x, 1/2-z'
 14 '1/2+y, 1/2+x, 1/2+z'
 15 'y, -x, -z'
 16 'y, -x, z'
loop_
 _atom_type_symbol
 Si
 Fe
 Tm
loop_
 _atom_site_label
 _atom_site_type_symbol
 _atom_site_symmetry_multiplicity
 _atom_site_Wyckoff_symbol
 _atom_site_fract_x
 _atom_site_fract_y
 _atom_site_fract_z
 _atom_site_occupancy
 Si3 Si 8 h 0.024 0.315 0 1
 Fe1 Fe 8 h 0.142 0.123 0 1
 Tm Tm 8 h 0.264 0.428 0 1
 Si2 Si 8 g 0.175 0.675 0.25 1
 Si1 Si 4 e 0 0 0.254 1
 Fe2 Fe 4 d 0 0.5 0.25 1


_exptl_crystal_colour                    ?
_exptl_crystal_density_meas              ?
_exptl_crystal_density_diffrn            7.18
_cell_measurement_temperature            15
_cell_measurement_radiation              neutrons
_cell_measurement_wavelength             2.38
_pd_proc_wavelength                      2.38
_cell_measurement_reflns_used            ?
_diffrn_ambient_temperature              1.5
_diffrn_measurement_device               diffractometer
_diffrn_measurement_device_type          ?
_diffrn_radiation_type                   neutrons
_diffrn_radiation_wavelength             2.38
_diffrn_reflns_number                    ?
_exptl_absorpt_coefficient_mu            ?
_exptl_absorpt_correction_type           ?
_computing_structure_solution            'starting values from the literature'
_refine_ls_number_parameters             ?
_refine_ls_number_reflns                 ?
_refine_ls_R_factor_gt                   ?
_refine_ls_wR_factor_gt                  ?
_pd_proc_ls_proof_R_factor               ?
_pd_proc_ls_proof_wR_factor              ?
_refine_ls_R_I_factor                    ?

# End of data set 381270

