##############################################################################
#                                                                            #
# Ge-Rh-Sc         # Sc4Rh6Ge19                                    #  460162 #
#                                                                            #
##############################################################################
#                                                                            #
#                           Pearson's Crystal Data                           #
#      Crystal Structure Database for Inorganic Compounds (on DVD)           #
#                              Release 2023/24                               #
#                  Editors: Pierre Villars and Karin Cenzual                 #
#                                                                            #
#   Copyright (c) ASM International & Material Phases Data System (MPDS),    #
# Switzerland & National Institute for Materials Science (NIMS), Japan, 2023 #
#                   All rights reserved. Version 2023.07                     #
#                                                                            #
#   This copy of Pearson's Crystal Data is licensed to:                      #
#   Hunter College - City University of New York                             #
#                                                                            #
##############################################################################

data_460162
_audit_creation_date                     2024-02-25
_audit_creation_method
;
Pearson's Crystal Data browser
;
#_database_code_PCD                      460162
_database_code_PDF                       04-008-9934

# Entry summary

_chemical_formula_structural             'Sc~4~ Rh~6~ Ge~19~'
_chemical_formula_sum                    'Ge19 Rh6 Sc4'
_chemical_name_mineral                   ?
_chemical_compound_source                ?
_chemical_name_structure_type            La~4~Re~6~O~19~,cI58,197
_chemical_formula_weight                 2176.5

# Bibliographic data

_publ_section_title
;
Nouveaux ternaires supraconducteurs dans les systemes M-M'-X (M= Ca, Sr, Sc, Y, La-Lu; M'= Co, Rh, Ir; X= Ge, Pb)
;
_journal_coden_ASTM                      MRBUAC
_journal_name_full                       'Mater. Res. Bull.'
_journal_year                            1986
_journal_volume                          21
_journal_page_first                      1203
_journal_page_last                       1208
_journal_language                        French
loop_
 _publ_author_name
 _publ_author_address
'Venturini G.'
;
Nancy I Henri Poincare University
Laboratoire de Chimie du Solide Mineral (LCSM)
Vandoeuvre-les-Nancy
France
;
'Kamta M.'
;
Nancy I Henri Poincare University
Laboratoire de Chimie du Solide Mineral (LCSM)
Vandoeuvre-les-Nancy
France
;
'McRae E.'
;
Nancy I Henri Poincare University
Laboratoire de Chimie du Solide Mineral (LCSM)
Vandoeuvre-les-Nancy
France
;
'Mareche J.F.'
;
Nancy I Henri Poincare University
Laboratoire de Chimie du Solide Mineral (LCSM)
Vandoeuvre-les-Nancy
France
;
'Malaman B.'
;
Nancy I Henri Poincare University
Laboratoire de Chimie du Solide Mineral (LCSM)
Vandoeuvre-les-Nancy
France
;
'Roques B.'
;
Nancy I Henri Poincare University
Laboratoire de Chimie du Solide Mineral (LCSM)
Vandoeuvre-les-Nancy
France
;

# Standardized crystallographic data

_cell_length_a                           12.605
_cell_length_b                           12.605
_cell_length_c                           12.605
_cell_angle_alpha                        90
_cell_angle_beta                         90
_cell_angle_gamma                        90
_cell_volume                             2002.8
_cell_formula_units_Z                    2
_space_group_IT_number                   197
_space_group_name_H-M_alt                'I 2 3'
loop_
 _space_group_symop_id
 _space_group_symop_operation_xyz
 1 'x, y, z'
 2 '-x, -y, z'
 3 '-x, y, -z'
 4 '-y, -z, x'
 5 '-y, z, -x'
 6 '-z, -x, y'
 7 '-z, x, -y'
 8 'x, -y, -z'
 9 'y, -z, -x'
 10 'y, z, x'
 11 'z, -x, -y'
 12 'z, x, y'
 13 '1/2+x, 1/2+y, 1/2+z'
 14 '1/2-x, 1/2-y, 1/2+z'
 15 '1/2-x, 1/2+y, 1/2-z'
 16 '1/2-y, 1/2-z, 1/2+x'
 17 '1/2-y, 1/2+z, 1/2-x'
 18 '1/2-z, 1/2-x, 1/2+y'
 19 '1/2-z, 1/2+x, 1/2-y'
 20 '1/2+x, 1/2-y, 1/2-z'
 21 '1/2+y, 1/2-z, 1/2-x'
 22 '1/2+y, 1/2+z, 1/2+x'
 23 '1/2+z, 1/2-x, 1/2-y'
 24 '1/2+z, 1/2+x, 1/2+y'

# Atomic positions taken from type-defining entry

loop_
 _atom_type_symbol
 Ge
 Rh
 Sc
loop_
 _atom_site_label
 _atom_site_type_symbol
 _atom_site_symmetry_multiplicity
 _atom_site_Wyckoff_symbol
 _atom_site_fract_x
 _atom_site_fract_y
 _atom_site_fract_z
 _atom_site_occupancy
 Ge1 Ge 24 f 0.16 0.479 0.228 1
 Rh1 Rh 12 e 0.1341 0.5 0 1
 Ge2 Ge 12 d 0.331 0 0 1
 Sc1 Sc 8 c 0.1613 0.1613 0.1613 1
 Ge3 Ge 2 a 0 0 0 1


_exptl_crystal_colour                    ?
_exptl_crystal_density_meas              ?
_exptl_crystal_density_diffrn            3.61
_cell_measurement_temperature            ?
_cell_measurement_radiation              'X-rays, Cu Ka'
_cell_measurement_reflns_used            ?
_diffrn_ambient_temperature              ?
_diffrn_measurement_device               'Guinier film'
_diffrn_measurement_device_type          ?
_diffrn_radiation_type                   ?
_diffrn_reflns_number                    ?
_exptl_absorpt_coefficient_mu            ?
_exptl_absorpt_correction_type           ?
_computing_structure_solution            ?
_refine_ls_number_parameters             ?
_refine_ls_number_reflns                 ?
_refine_ls_R_factor_gt                   ?
_refine_ls_wR_factor_gt                  ?

# End of data set 460162

