##############################################################################
#                                                                            #
# Ru-Si-U          # U2Ru3Si5                                      #  461088 #
#                                                                            #
##############################################################################
#                                                                            #
#                           Pearson's Crystal Data                           #
#      Crystal Structure Database for Inorganic Compounds (on DVD)           #
#                              Release 2023/24                               #
#                  Editors: Pierre Villars and Karin Cenzual                 #
#                                                                            #
#   Copyright (c) ASM International & Material Phases Data System (MPDS),    #
# Switzerland & National Institute for Materials Science (NIMS), Japan, 2023 #
#                   All rights reserved. Version 2023.07                     #
#                                                                            #
#   This copy of Pearson's Crystal Data is licensed to:                      #
#   Hunter College - City University of New York                             #
#                                                                            #
##############################################################################

data_461088
_audit_creation_date                     2024-02-25
_audit_creation_method
;
Pearson's Crystal Data browser
;
#_database_code_PCD                      461088
_database_code_PDF                       04-003-9436

# Entry summary

_chemical_formula_structural             'U~2~ Ru~3~ Si~5~'
_chemical_formula_sum                    'Ru3 Si5 U2'
_chemical_name_mineral                   ?
_chemical_compound_source                ?
_chemical_name_structure_type            Lu~2~Co~3~Si~5~,mS40,15
_chemical_formula_weight                 919.7

# Bibliographic data

_publ_section_title
'Transport and magnetic properties of U~2~M~3~Si~5~ silicides (M= Co, Rh, Ru)'
_journal_coden_ASTM                      JMMMDC
_journal_name_full                       'J. Magn. Magn. Mater.'
_journal_year                            1993
_journal_volume                          128
_journal_page_first                      313
_journal_page_last                       320
_journal_language                        English
loop_
 _publ_author_name
 _publ_author_address
'Piraux L.'
;
Louvain Catholic University (UCL)
Unite de Physico-Chimie et de Physique des Materiaux
Louvain-la-Neuve
Belgium
;
'Grivei E.'
;
Louvain Catholic University (UCL)
Unite de Physico-Chimie et de Physique des Materiaux
Louvain-la-Neuve
Belgium
;
'Chevalier B.'
;
Bordeaux I University
Laboratoire de Chimie du Solide (LCS)
Talence
France
;
'Dordor P.'
;
Bordeaux I University
Laboratoire de Chimie du Solide (LCS)
Talence
France
;
'Marquestaut E.'
;
Bordeaux I University
Laboratoire de Chimie du Solide (LCS)
Talence
France
;
'Etourneau J.R.'
;
Bordeaux I University
Laboratoire de Chimie du Solide (LCS)
Talence
France
;

# Standardized crystallographic data

_cell_length_a                           11.092
_cell_length_b                           11.762
_cell_length_c                           5.707
_cell_angle_alpha                        90
_cell_angle_beta                         119.3
_cell_angle_gamma                        90
_cell_volume                             649.3
_cell_formula_units_Z                    4
_space_group_IT_number                   15
_space_group_name_H-M_alt                'C 1 2/c 1'
loop_
 _space_group_symop_id
 _space_group_symop_operation_xyz
 1 'x, y, z'
 2 '-x, -y, -z'
 3 '-x, y, 1/2-z'
 4 'x, -y, 1/2+z'
 5 '1/2+x, 1/2+y, z'
 6 '1/2-x, 1/2-y, -z'
 7 '1/2-x, 1/2+y, 1/2-z'
 8 '1/2+x, 1/2-y, 1/2+z'

# Atomic positions taken from type-defining entry

loop_
 _atom_type_symbol
 Ru
 U
 Si
loop_
 _atom_site_label
 _atom_site_type_symbol
 _atom_site_symmetry_multiplicity
 _atom_site_Wyckoff_symbol
 _atom_site_fract_x
 _atom_site_fract_y
 _atom_site_fract_z
 _atom_site_occupancy
 Ru1 Ru 8 f 0.098 0.3592 0.1252 1
 U1 U 8 f 0.26731 0.13748 0.2649 1
 Si1 Si 8 f 0.3323 0.402 0.33 1
 Ru2 Ru 4 e 0 0.0031 0.25 1
 Si2 Si 4 e 0 0.2134 0.25 1
 Si3 Si 4 e 0 0.5127 0.25 1
 Si4 Si 4 e 0 0.7737 0.25 1


_exptl_crystal_colour                    ?
_exptl_crystal_density_meas              ?
_exptl_crystal_density_diffrn            9.41
_cell_measurement_temperature            ?
_cell_measurement_radiation              X-rays
_cell_measurement_reflns_used            ?
_diffrn_ambient_temperature              ?
_diffrn_measurement_device               'automatic diffractometer'
_diffrn_measurement_device_type          ?
_diffrn_radiation_type                   ?
_diffrn_reflns_number                    ?
_exptl_absorpt_coefficient_mu            ?
_exptl_absorpt_correction_type           ?
_computing_structure_solution            ?
_refine_ls_number_parameters             ?
_refine_ls_number_reflns                 ?
_refine_ls_R_factor_gt                   ?
_refine_ls_wR_factor_gt                  ?

# End of data set 461088

