##############################################################################
#                                                                            #
# Co-Ge-Pr         # Pr2Co3Ge5 orth                                #  461416 #
#                                                                            #
##############################################################################
#                                                                            #
#                           Pearson's Crystal Data                           #
#      Crystal Structure Database for Inorganic Compounds (on DVD)           #
#                              Release 2023/24                               #
#                  Editors: Pierre Villars and Karin Cenzual                 #
#                                                                            #
#   Copyright (c) ASM International & Material Phases Data System (MPDS),    #
# Switzerland & National Institute for Materials Science (NIMS), Japan, 2023 #
#                   All rights reserved. Version 2023.07                     #
#                                                                            #
#   This copy of Pearson's Crystal Data is licensed to:                      #
#   Hunter College - City University of New York                             #
#                                                                            #
##############################################################################

data_461416
_audit_creation_date                     2024-02-24
_audit_creation_method
;
Pearson's Crystal Data browser
;
#_database_code_PCD                      461416
_database_code_PDF                       04-003-9692

# Entry summary

_chemical_formula_structural             'Pr~2~ Co~3~ Ge~5~'
_chemical_formula_sum                    'Co3 Ge5 Pr2'
_chemical_name_mineral                   ?
_chemical_compound_source                ?
_chemical_name_structure_type            U~2~Co~3~Si~5~,oI40,72
_chemical_formula_weight                 821.6

# Bibliographic data

_publ_section_title                      'New ternary praseodymium germanides'
_journal_coden_ASTM                      INOMAF
_journal_name_full                       'Inorg. Mater.'
_journal_year                            1987
_journal_volume                          23
_journal_page_first                      504
_journal_page_last                       508
_journal_language                        English
loop_
 _publ_author_name
 _publ_author_address
'Fedyna M.F.'
;
Lviv Ivan Franko State University
Lviv
Ukraine
;
'Pecharskii V.K.'
;
Lviv Ivan Franko State University
Department of Inorganic Chemistry
Lviv
Ukraine
;
'Bodak O.I.'
;
Lviv Ivan Franko State University
Department of Inorganic Chemistry
Lviv
Ukraine
;

# Standardized crystallographic data

_cell_length_a                           9.783
_cell_length_b                           11.896
_cell_length_c                           5.831
_cell_angle_alpha                        90
_cell_angle_beta                         90
_cell_angle_gamma                        90
_cell_volume                             678.6
_cell_formula_units_Z                    4
_space_group_IT_number                   72
_space_group_name_H-M_alt                'I b a m'
loop_
 _space_group_symop_id
 _space_group_symop_operation_xyz
 1 'x, y, z'
 2 '-x, -y, -z'
 3 '-x, -y, z'
 4 '-x, y, 1/2-z'
 5 '-x, y, 1/2+z'
 6 'x, -y, 1/2-z'
 7 'x, -y, 1/2+z'
 8 'x, y, -z'
 9 '1/2+x, 1/2+y, 1/2+z'
 10 '1/2-x, 1/2-y, 1/2-z'
 11 '1/2-x, 1/2-y, 1/2+z'
 12 '1/2-x, 1/2+y, 1-z'
 13 '1/2-x, 1/2+y, 1+z'
 14 '1/2+x, 1/2-y, 1-z'
 15 '1/2+x, 1/2-y, 1+z'
 16 '1/2+x, 1/2+y, 1/2-z'
loop_
 _atom_type_symbol
 Co
 Pr
 Ge
loop_
 _atom_site_label
 _atom_site_type_symbol
 _atom_site_symmetry_multiplicity
 _atom_site_Wyckoff_symbol
 _atom_site_fract_x
 _atom_site_fract_y
 _atom_site_fract_z
 _atom_site_occupancy
 Co1 Co 8 j 0.1136 0.1202 0 1
 Pr Pr 8 j 0.2726 0.3673 0 1
 Ge2 Ge 8 j 0.3393 0.0959 0 1
 Ge1 Ge 8 g 0 0.2505 0.25 1
 Co2 Co 4 b 0.5 0 0.25 1
 Ge3 Ge 4 a 0 0 0.25 1


_exptl_crystal_colour                    ?
_exptl_crystal_density_meas              ?
_exptl_crystal_density_diffrn            8.04
_cell_measurement_temperature            ?
_cell_measurement_radiation              'X-rays, Fe Ka'
_cell_measurement_reflns_used            ?
_diffrn_ambient_temperature              ?
_diffrn_measurement_device               'automatic diffractometer'
_diffrn_measurement_device_type          DRON-2
_diffrn_radiation_type                   'X-rays, Fe Ka'
_diffrn_reflns_number                    ?
_exptl_absorpt_coefficient_mu            ?
_exptl_absorpt_correction_type           ?
_computing_structure_solution            'starting values from the literature'
_refine_ls_number_parameters             ?
_refine_ls_number_reflns                 ?
_refine_ls_R_factor_gt                   0.134
_refine_ls_wR_factor_gt                  ?
_pd_proc_ls_proof_R_factor               ?
_pd_proc_ls_proof_wR_factor              ?
_refine_ls_R_I_factor                    ?

# Published diffraction lines

loop_
 _refln_index_h
 _refln_index_k
 _refln_index_l
 _refln_d_spacing
 _refln_intensity_meas
 2 1 1 3.593 12
 0 4 0 2.956 89
 0 0 2 2.92 97
 2 3 1 2.726 37
 1 1 2 2.721 3
 3 2 1 2.668 700
 1 4 1 2.654 108
 0 2 2 2.616 5
 2 4 0 2.548 802
 3 3 0 2.516 900
 4 0 0 2.44 87
 1 3 2 2.275 25
 4 2 0 2.26 5
 4 1 1 2.218 102
 0 4 2 2.08 820
 3 4 1 2.058 9
 2 5 1 2.014 1
 0 6 0 1.98 4
 4 3 1 1.965 80
 3 5 0 1.926 20
 3 3 2 1.9 10
 4 4 0 1.886 62
 4 0 2 1.886 88
 1 6 1 1.847 20
 1 2 3 1.814 20
 1 5 2 1.81 1
 4 2 2 1.78 6
 2 1 3 1.779 10
 5 2 1 1.767 257
 5 3 0 1.75 3
 2 3 3 1.639 31
 6 0 0 1.627 200
 3 2 3 1.609 141
 1 4 3 1.591 109
 5 4 1 1.574 34
 6 1 1 1.558 13
 2 6 2 1.552 3
 2 7 1 1.543 15
 4 6 0 1.538 55
 5 5 0 1.507 19
 5 3 2 1.499 5
 0 8 0 1.487 95
 6 3 1 1.458 182
 1 1 4 1.431 61
 1 8 1 1.424 49
 6 0 2 1.423 107
 0 2 4 1.418 3
 7 1 0 1.388 15
 6 2 2 1.385 3
 4 6 2 1.368 24
 4 7 1 1.358 89
 5 2 3 1.346 90
 3 7 2 1.338 36
 7 2 1 1.326 11
 3 1 4 1.322 3
 7 3 0 1.318 6
 6 5 1 1.311 43
 6 4 2 1.28 30
 2 8 2 1.279 220
 4 8 0 1.27 50
 2 4 4 1.268 201
 3 3 4 1.263 10
 6 6 0 1.258 8
 7 1 2 1.252 53
 2 9 1 1.246 8
 2 7 3 1.231 1
 4 2 4 1.225 25
 7 5 0 1.204 1
 7 3 2 1.2 10
 6 3 3 1.195 10
 8 1 1 1.191 8
 0 10 0 1.19 1
 0 6 4 1.173 45
 3 5 4 1.162 7
 1 10 1 1.159 70
 4 4 4 1.153 23
 8 3 1 1.145 1
 4 7 3 1.131 51
 2 1 5 1.129 11
 5 3 4 1.122 18
 7 2 3 1.114 17
 3 8 3 1.111 3
 8 2 2 1.108 7
 0 10 2 1.104 1
 1 7 4 1.098 131
 2 3 5 1.091 1
 6 0 4 1.088 8
 9 1 0 1.081 58
 3 2 5 1.08 40
 7 7 0 1.079 8
 1 11 0 1.076 3
 4 10 0 1.07 6
 8 5 1 1.069 7
 2 9 3 1.068 10
 7 4 3 1.059 38
 8 4 2 1.055 65
 5 5 4 1.048 106
 0 8 4 1.043 140
 6 8 2 1.029 170
 3 11 0 1.027 47
 5 9 2 1.024 3

# End of data set 461416

