##############################################################################
#                                                                            #
# Co-Ge-Pr         # Pr0.69Co9Ge4                                  #  461418 #
#                                                                            #
##############################################################################
#                                                                            #
#                           Pearson's Crystal Data                           #
#      Crystal Structure Database for Inorganic Compounds (on DVD)           #
#                              Release 2023/24                               #
#                  Editors: Pierre Villars and Karin Cenzual                 #
#                                                                            #
#   Copyright (c) ASM International & Material Phases Data System (MPDS),    #
# Switzerland & National Institute for Materials Science (NIMS), Japan, 2023 #
#                   All rights reserved. Version 2023.07                     #
#                                                                            #
#   This copy of Pearson's Crystal Data is licensed to:                      #
#   Hunter College - City University of New York                             #
#                                                                            #
##############################################################################

data_461418
_audit_creation_date                     2024-02-24
_audit_creation_method
;
Pearson's Crystal Data browser
;
#_database_code_PCD                      461418
_database_code_PDF                       04-008-9961

# Entry summary

_chemical_formula_structural             'Pr~0.69~ Co~9~ Ge~4~'
_chemical_formula_sum                    'Co9 Ge4 Pr0.69'
_chemical_name_mineral                   ?
_chemical_compound_source                ?
_chemical_name_structure_type            Pr~0.7~Co~9~Ge~4~,tI56,140
_chemical_formula_weight                 918.0

# Bibliographic data

_publ_section_title                      'New ternary praseodymium germanides'
_journal_coden_ASTM                      INOMAF
_journal_name_full                       'Inorg. Mater.'
_journal_year                            1987
_journal_volume                          23
_journal_page_first                      504
_journal_page_last                       508
_journal_language                        English
loop_
 _publ_author_name
 _publ_author_address
'Fedyna M.F.'
;
Lviv Ivan Franko State University
Lviv
Ukraine
;
'Pecharskii V.K.'
;
Lviv Ivan Franko State University
Department of Inorganic Chemistry
Lviv
Ukraine
;
'Bodak O.I.'
;
Lviv Ivan Franko State University
Department of Inorganic Chemistry
Lviv
Ukraine
;

# Standardized crystallographic data

_cell_length_a                           7.932
_cell_length_b                           7.932
_cell_length_c                           11.817
_cell_angle_alpha                        90
_cell_angle_beta                         90
_cell_angle_gamma                        90
_cell_volume                             743.5
_cell_formula_units_Z                    4
_space_group_IT_number                   140
_space_group_name_H-M_alt                'I 4/m c m'
loop_
 _space_group_symop_id
 _space_group_symop_operation_xyz
 1 'x, y, z'
 2 '-x, -y, -z'
 3 '-x, -y, z'
 4 '-x, y, 1/2-z'
 5 '-x, y, 1/2+z'
 6 '-y, -x, 1/2-z'
 7 '-y, -x, 1/2+z'
 8 '-y, x, -z'
 9 '-y, x, z'
 10 'x, -y, 1/2-z'
 11 'x, -y, 1/2+z'
 12 'x, y, -z'
 13 'y, -x, -z'
 14 'y, -x, z'
 15 'y, x, 1/2-z'
 16 'y, x, 1/2+z'
 17 '1/2+x, 1/2+y, 1/2+z'
 18 '1/2-x, 1/2-y, 1/2-z'
 19 '1/2-x, 1/2-y, 1/2+z'
 20 '1/2-x, 1/2+y, 1-z'
 21 '1/2-x, 1/2+y, 1+z'
 22 '1/2-y, 1/2-x, 1-z'
 23 '1/2-y, 1/2-x, 1+z'
 24 '1/2-y, 1/2+x, 1/2-z'
 25 '1/2-y, 1/2+x, 1/2+z'
 26 '1/2+x, 1/2-y, 1-z'
 27 '1/2+x, 1/2-y, 1+z'
 28 '1/2+x, 1/2+y, 1/2-z'
 29 '1/2+y, 1/2-x, 1/2-z'
 30 '1/2+y, 1/2-x, 1/2+z'
 31 '1/2+y, 1/2+x, 1-z'
 32 '1/2+y, 1/2+x, 1+z'
loop_
 _atom_type_symbol
 Co
 Ge
 Pr
loop_
 _atom_site_label
 _atom_site_type_symbol
 _atom_site_symmetry_multiplicity
 _atom_site_Wyckoff_symbol
 _atom_site_fract_x
 _atom_site_fract_y
 _atom_site_fract_z
 _atom_site_occupancy
 Co2 Co 16 l 0.1815 0.6815 0.1284 1
 Co1 Co 16 l 0.6273 0.1273 0.1668 1
 Ge Ge 16 k 0.0633 0.2002 0 1
 Co3 Co 4 d 0 0.5 0 1
 Pr Pr 4 a 0 0 0.25 0.693


_exptl_crystal_colour                    ?
_exptl_crystal_density_meas              ?
_exptl_crystal_density_diffrn            8.20
_cell_measurement_temperature            ?
_cell_measurement_radiation              'X-rays, Fe Ka'
_cell_measurement_reflns_used            ?
_diffrn_ambient_temperature              ?
_diffrn_measurement_device               'automatic diffractometer'
_diffrn_measurement_device_type          DRON-2
_diffrn_radiation_type                   'X-rays, Fe Ka'
_diffrn_reflns_number                    ?
_exptl_absorpt_coefficient_mu            ?
_exptl_absorpt_correction_type           ?
_computing_structure_solution            'starting values from the literature'
_refine_ls_number_parameters             ?
_refine_ls_number_reflns                 ?
_refine_ls_R_factor_gt                   0.077
_refine_ls_wR_factor_gt                  ?
_pd_proc_ls_proof_R_factor               ?
_pd_proc_ls_proof_wR_factor              ?
_refine_ls_R_I_factor                    ?

# Published diffraction lines

loop_
 _refln_index_h
 _refln_index_k
 _refln_index_l
 _refln_d_spacing
 _refln_intensity_meas
 2 0 2 3.294 32
 0 0 4 2.953 10
 2 2 0 2.807 50
 2 1 3 2.607 520
 2 2 2 2.537 321
 1 3 0 2.527 293
 0 2 4 2.368 667
 1 3 2 2.305 1220
 2 3 1 2.165 12
 2 2 4 2.037 70
 0 4 0 1.953 831
 2 3 3 1.918 1140
 1 4 1 1.904 780
 0 4 2 1.886 639
 3 3 2 1.781 95
 2 4 0 1.773 100
 0 2 6 1.763 15
 0 4 4 1.644 186
 2 2 6 1.61 40
 3 3 4 1.579 127
 1 5 0 1.554 51
 1 3 6 1.548 20
 1 2 7 1.521 90
 1 5 2 1.506 36
 1 4 5 1.493 10
 0 0 8 1.473 92
 3 4 3 1.469 24
 2 5 1 1.462 15
 1 1 8 1.43 39
 4 4 0 1.407 128
 0 4 6 1.397 68
 0 2 8 1.382 8
 2 5 3 1.378 7
 1 5 4 1.374 42
 4 4 2 1.368 37
 3 5 0 1.36 53
 3 3 6 1.359 150
 0 6 0 1.321 52
 2 4 6 1.319 15
 2 2 8 1.305 26
 1 6 1 1.295 12
 0 6 2 1.29 13
 1 3 8 1.27 3
 1 4 7 1.267 240
 2 6 0 1.256 10
 2 5 5 1.25 120
 1 6 3 1.242 160
 3 5 4 1.232 90
 2 6 2 1.224 20
 0 6 4 1.208 15
 0 4 8 1.186 67
 4 5 3 1.18 90
 3 6 1 1.176 123
 3 3 8 1.16 45
 1 1 10 1.155 224
 4 4 6 1.142 31
 2 4 8 1.136 52
 3 6 3 1.132 6
 2 3 9 1.127 139
 1 7 0 1.121 111
 3 5 6 1.118 21
 1 7 2 1.102 82
 4 6 0 1.1 3
 0 6 6 1.098 64
 2 2 10 1.09 40
 2 7 1 1.085 225
 4 6 2 1.082 2
 1 5 8 1.07 20
 1 3 10 1.068 141
 2 6 6 1.058 172
 2 7 3 1.05 169
 1 7 4 1.05 31

# End of data set 461418

