##############################################################################
#                                                                            #
# Ce-Ni-Sn         # CeNi4Sn2                                      #  461661 #
#                                                                            #
##############################################################################
#                                                                            #
#                           Pearson's Crystal Data                           #
#      Crystal Structure Database for Inorganic Compounds (on DVD)           #
#                              Release 2023/24                               #
#                  Editors: Pierre Villars and Karin Cenzual                 #
#                                                                            #
#   Copyright (c) ASM International & Material Phases Data System (MPDS),    #
# Switzerland & National Institute for Materials Science (NIMS), Japan, 2023 #
#                   All rights reserved. Version 2023.07                     #
#                                                                            #
#   This copy of Pearson's Crystal Data is licensed to:                      #
#   Hunter College - City University of New York                             #
#                                                                            #
##############################################################################

data_461661
_audit_creation_date                     2024-02-24
_audit_creation_method
;
Pearson's Crystal Data browser
;
#_database_code_PCD                      461661
_database_code_PDF                       04-003-9912

# Entry summary

_chemical_formula_structural             'Ce Ni~4~ Sn~2~'
_chemical_formula_sum                    'Ce Ni4 Sn2'
_chemical_name_mineral                   ?
_chemical_compound_source                ?
_chemical_name_structure_type            KAu~4~Sn~2~,tI28,120
_chemical_formula_weight                 612.3

# Bibliographic data

_publ_section_title
'Structure and properties of RNi~4~Sn~2~, R= La, Ce, Pr, Nd, or Sm'           
_journal_coden_ASTM                      INOMAF
_journal_name_full                       'Inorg. Mater.'
_journal_year                            1988
_journal_volume                          24
_journal_page_first                      54
_journal_page_last                       57
_journal_language                        English
loop_
 _publ_author_name
 _publ_author_address
'Skolozdra R.V.'
;
Lviv Ivan Franko State University
Department of Inorganic Chemistry
Lviv
Ukraine
;
'Yasnitskaya I.V.'
;
Lviv Ivan Franko State University
Lviv
Ukraine
;
'Akselrud L.G.'
;
Lviv Ivan Franko State University
Department of Inorganic Chemistry
Lviv
Ukraine
;
'Komarovskaya L.P.'
;
Lviv Ivan Franko State University
Department of Inorganic Chemistry
Lviv
Ukraine
;

# Standardized crystallographic data

_cell_length_a                           7.753
_cell_length_b                           7.753
_cell_length_c                           7.869
_cell_angle_alpha                        90
_cell_angle_beta                         90
_cell_angle_gamma                        90
_cell_volume                             473
_cell_formula_units_Z                    4
_space_group_IT_number                   120
_space_group_name_H-M_alt                'I -4 c 2'
loop_
 _space_group_symop_id
 _space_group_symop_operation_xyz
 1 'x, y, z'
 2 '-x, -y, z'
 3 '-x, y, 1/2+z'
 4 '-y, -x, 1/2-z'
 5 '-y, x, -z'
 6 'x, -y, 1/2+z'
 7 'y, -x, -z'
 8 'y, x, 1/2-z'
 9 '1/2+x, 1/2+y, 1/2+z'
 10 '1/2-x, 1/2-y, 1/2+z'
 11 '1/2-x, 1/2+y, 1+z'
 12 '1/2-y, 1/2-x, 1-z'
 13 '1/2-y, 1/2+x, 1/2-z'
 14 '1/2+x, 1/2-y, 1+z'
 15 '1/2+y, 1/2-x, 1/2-z'
 16 '1/2+y, 1/2+x, 1-z'
loop_
 _atom_type_symbol
 Ni
 Sn
 Ce
loop_
 _atom_site_label
 _atom_site_type_symbol
 _atom_site_symmetry_multiplicity
 _atom_site_Wyckoff_symbol
 _atom_site_fract_x
 _atom_site_fract_y
 _atom_site_fract_z
 _atom_site_occupancy
 Ni Ni 16 i 0.125 0.148 0.083 1
 Sn Sn 8 e 0.356 0.356 0.25 1
 Ce Ce 4 d 0 0.5 0 1


_exptl_crystal_colour                    ?
_exptl_crystal_density_meas              ?
_exptl_crystal_density_diffrn            8.60
_cell_measurement_temperature            ?
_cell_measurement_radiation              'X-rays, Cu Ka'
_cell_measurement_reflns_used            ?
_diffrn_ambient_temperature              ?
_diffrn_measurement_device               'automatic diffractometer'
_diffrn_measurement_device_type          DRON-3
_diffrn_radiation_type                   'X-rays, Cu Ka'
_diffrn_reflns_number                    ?
_exptl_absorpt_coefficient_mu            ?
_exptl_absorpt_correction_type           ?
_computing_structure_solution            'starting values from the literature'
_refine_ls_number_parameters             ?
_refine_ls_number_reflns                 ?
_refine_ls_R_factor_gt                   0.078
_refine_ls_wR_factor_gt                  ?
_pd_proc_ls_proof_R_factor               ?
_pd_proc_ls_proof_wR_factor              ?
_refine_ls_R_I_factor                    ?

# Published diffraction lines

loop_
 _refln_index_h
 _refln_index_k
 _refln_index_l
 _refln_d_spacing
 _refln_intensity_meas
 1 1 2 3.2 405
 0 2 2 2.77 495
 1 3 0 2.45 1000
 2 2 2 2.25 15
 1 2 3 2.09 820
 0 0 4 1.968 40
 0 4 0 1.941 80
 1 1 4 1.854 24
 1 4 1 1.83 194
 0 2 4 1.737 193
 2 3 3 1.659 221
 2 2 4 1.592 62
 1 3 4 1.531 235
 1 2 5 1.433 35
 1 5 2 1.418 132
 0 4 4 1.375 106
 3 4 3 1.332 13
 0 0 6 1.301 152
 1 1 6 1.274 40
 2 5 3 1.261 163

# End of data set 461661

