##############################################################################
#                                                                            #
# Ni-Sm-Sn         # SmNi4Sn2                                      #  461665 #
#                                                                            #
##############################################################################
#                                                                            #
#                           Pearson's Crystal Data                           #
#      Crystal Structure Database for Inorganic Compounds (on DVD)           #
#                              Release 2023/24                               #
#                  Editors: Pierre Villars and Karin Cenzual                 #
#                                                                            #
#   Copyright (c) ASM International & Material Phases Data System (MPDS),    #
# Switzerland & National Institute for Materials Science (NIMS), Japan, 2023 #
#                   All rights reserved. Version 2023.07                     #
#                                                                            #
#   This copy of Pearson's Crystal Data is licensed to:                      #
#   Hunter College - City University of New York                             #
#                                                                            #
##############################################################################

data_461665
_audit_creation_date                     2024-02-25
_audit_creation_method
;
Pearson's Crystal Data browser
;
#_database_code_PCD                      461665
_database_code_PDF                       04-003-9916

# Entry summary

_chemical_formula_structural             'Sm Ni~4~ Sn~2~'
_chemical_formula_sum                    'Ni4 Sm Sn2'
_chemical_name_mineral                   ?
_chemical_compound_source                ?
_chemical_name_structure_type            KAu~4~Sn~2~,tI28,120
_chemical_formula_weight                 622.6

# Bibliographic data

_publ_section_title
'Structure and properties of RNi~4~Sn~2~, R= La, Ce, Pr, Nd, or Sm'           
_journal_coden_ASTM                      INOMAF
_journal_name_full                       'Inorg. Mater.'
_journal_year                            1988
_journal_volume                          24
_journal_page_first                      54
_journal_page_last                       57
_journal_language                        English
loop_
 _publ_author_name
 _publ_author_address
'Skolozdra R.V.'
;
Lviv Ivan Franko State University
Department of Inorganic Chemistry
Lviv
Ukraine
;
'Yasnitskaya I.V.'
;
Lviv Ivan Franko State University
Lviv
Ukraine
;
'Akselrud L.G.'
;
Lviv Ivan Franko State University
Department of Inorganic Chemistry
Lviv
Ukraine
;
'Komarovskaya L.P.'
;
Lviv Ivan Franko State University
Department of Inorganic Chemistry
Lviv
Ukraine
;

# Standardized crystallographic data

_cell_length_a                           7.666
_cell_length_b                           7.666
_cell_length_c                           7.903
_cell_angle_alpha                        90
_cell_angle_beta                         90
_cell_angle_gamma                        90
_cell_volume                             464.4
_cell_formula_units_Z                    4
_space_group_IT_number                   120
_space_group_name_H-M_alt                'I -4 c 2'
loop_
 _space_group_symop_id
 _space_group_symop_operation_xyz
 1 'x, y, z'
 2 '-x, -y, z'
 3 '-x, y, 1/2+z'
 4 '-y, -x, 1/2-z'
 5 '-y, x, -z'
 6 'x, -y, 1/2+z'
 7 'y, -x, -z'
 8 'y, x, 1/2-z'
 9 '1/2+x, 1/2+y, 1/2+z'
 10 '1/2-x, 1/2-y, 1/2+z'
 11 '1/2-x, 1/2+y, 1+z'
 12 '1/2-y, 1/2-x, 1-z'
 13 '1/2-y, 1/2+x, 1/2-z'
 14 '1/2+x, 1/2-y, 1+z'
 15 '1/2+y, 1/2-x, 1/2-z'
 16 '1/2+y, 1/2+x, 1-z'

# Atomic positions taken from type-defining entry

loop_
 _atom_type_symbol
 Ni
 Sn
 Sm
loop_
 _atom_site_label
 _atom_site_type_symbol
 _atom_site_symmetry_multiplicity
 _atom_site_Wyckoff_symbol
 _atom_site_fract_x
 _atom_site_fract_y
 _atom_site_fract_z
 _atom_site_occupancy
 Ni1 Ni 16 i 0.1452 0.1575 0.0851 1
 Sn1 Sn 8 e 0.356 0.356 0.25 1
 Sm1 Sm 4 d 0 0.5 0 1


_exptl_crystal_colour                    ?
_exptl_crystal_density_meas              ?
_exptl_crystal_density_diffrn            8.90
_cell_measurement_temperature            ?
_cell_measurement_radiation              'X-rays, Cu Ka'
_cell_measurement_reflns_used            ?
_diffrn_ambient_temperature              ?
_diffrn_measurement_device               'automatic diffractometer'
_diffrn_measurement_device_type          ?
_diffrn_radiation_type                   ?
_diffrn_reflns_number                    ?
_exptl_absorpt_coefficient_mu            ?
_exptl_absorpt_correction_type           ?
_computing_structure_solution            ?
_refine_ls_number_parameters             ?
_refine_ls_number_reflns                 ?
_refine_ls_R_factor_gt                   ?
_refine_ls_wR_factor_gt                  ?

# End of data set 461665

