##############################################################################
#                                                                            #
# Co-Gd-Ge         # Gd3Co4Ge13                                    #  536007 #
#                                                                            #
##############################################################################
#                                                                            #
#                           Pearson's Crystal Data                           #
#      Crystal Structure Database for Inorganic Compounds (on DVD)           #
#                              Release 2023/24                               #
#                  Editors: Pierre Villars and Karin Cenzual                 #
#                                                                            #
#   Copyright (c) ASM International & Material Phases Data System (MPDS),    #
# Switzerland & National Institute for Materials Science (NIMS), Japan, 2023 #
#                   All rights reserved. Version 2023.07                     #
#                                                                            #
#   This copy of Pearson's Crystal Data is licensed to:                      #
#   Hunter College - City University of New York                             #
#                                                                            #
##############################################################################

data_536007
_audit_creation_date                     2024-02-24
_audit_creation_method
;
Pearson's Crystal Data browser
;
#_database_code_PCD                      536007
_database_code_PDF                       04-004-9974

# Entry summary

_chemical_formula_structural             'Gd~3~ Co~4~ Ge~13~'
_chemical_formula_sum                    'Co4 Gd3 Ge13'
_chemical_name_mineral                   ?
_chemical_compound_source                ?
_chemical_name_structure_type            Yb~3~Rh~4~Sn~13~,cP40,223
_chemical_formula_weight                 1651.2

# Bibliographic data

_publ_section_title
;
De nouvelles series de germaniures, isotypes de Yb~3~Rh~4~Sn~13~ et BaNiSn~3~, dans les systemes ternaires TR-T-Ge ou TR est un element des terres rares et T= Co, Rh, Ir, Ru, Os
;
_journal_coden_ASTM                      JCOMAH
_journal_name_full                       'J. Less-Common Met.'
_journal_year                            1985
_journal_volume                          113
_journal_page_first                      197
_journal_page_last                       204
_journal_language                        French
loop_
 _publ_author_name
 _publ_author_address
'Venturini G.'
;
Nancy I Henri Poincare University
Laboratoire de Chimie du Solide Mineral (LCSM)
Vandoeuvre-les-Nancy
France
;
'Meot Meyer M.'
;
Nancy I Henri Poincare University
Laboratoire de Chimie du Solide Mineral (LCSM)
Vandoeuvre-les-Nancy
France
;
'Malaman B.'
;
Nancy I Henri Poincare University
Laboratoire de Chimie du Solide Mineral (LCSM)
Vandoeuvre-les-Nancy
France
;
'Roques B.'
;
Nancy I Henri Poincare University
Laboratoire de Chimie du Solide Mineral (LCSM)
Vandoeuvre-les-Nancy
France
;

# Standardized crystallographic data

_cell_length_a                           8.78
_cell_length_b                           8.78
_cell_length_c                           8.78
_cell_angle_alpha                        90
_cell_angle_beta                         90
_cell_angle_gamma                        90
_cell_volume                             676.8
_cell_formula_units_Z                    2
_space_group_IT_number                   223
_space_group_name_H-M_alt                'P m -3 n'
loop_
 _space_group_symop_id
 _space_group_symop_operation_xyz
 1 'x, y, z'
 2 '1/2-x, 1/2-z, 1/2-y'
 3 '1/2-x, 1/2-z, 1/2+y'
 4 '1/2-x, 1/2+z, 1/2-y'
 5 '1/2-x, 1/2+z, 1/2+y'
 6 '-x, -y, -z'
 7 '-x, -y, z'
 8 '-x, y, -z'
 9 '-x, y, z'
 10 '1/2-y, 1/2-x, 1/2-z'
 11 '1/2-y, 1/2-x, 1/2+z'
 12 '1/2-y, 1/2+x, 1/2-z'
 13 '1/2-y, 1/2+x, 1/2+z'
 14 '-y, -z, -x'
 15 '-y, -z, x'
 16 '-y, z, -x'
 17 '-y, z, x'
 18 '1/2-z, 1/2-y, 1/2-x'
 19 '1/2-z, 1/2-y, 1/2+x'
 20 '1/2-z, 1/2+y, 1/2-x'
 21 '1/2-z, 1/2+y, 1/2+x'
 22 '-z, -x, -y'
 23 '-z, -x, y'
 24 '-z, x, -y'
 25 '-z, x, y'
 26 '1/2+x, 1/2-z, 1/2-y'
 27 '1/2+x, 1/2-z, 1/2+y'
 28 '1/2+x, 1/2+z, 1/2-y'
 29 '1/2+x, 1/2+z, 1/2+y'
 30 'x, -y, -z'
 31 'x, -y, z'
 32 'x, y, -z'
 33 '1/2+y, 1/2-x, 1/2-z'
 34 '1/2+y, 1/2-x, 1/2+z'
 35 '1/2+y, 1/2+x, 1/2-z'
 36 '1/2+y, 1/2+x, 1/2+z'
 37 'y, -z, -x'
 38 'y, -z, x'
 39 'y, z, -x'
 40 'y, z, x'
 41 '1/2+z, 1/2-y, 1/2-x'
 42 '1/2+z, 1/2-y, 1/2+x'
 43 '1/2+z, 1/2+y, 1/2-x'
 44 '1/2+z, 1/2+y, 1/2+x'
 45 'z, -x, -y'
 46 'z, -x, y'
 47 'z, x, -y'
 48 'z, x, y'

# Atomic positions taken from type-defining entry

loop_
 _atom_type_symbol
 Ge
 Co
 Gd
loop_
 _atom_site_label
 _atom_site_type_symbol
 _atom_site_symmetry_multiplicity
 _atom_site_Wyckoff_symbol
 _atom_site_fract_x
 _atom_site_fract_y
 _atom_site_fract_z
 _atom_site_occupancy
 Ge1 Ge 24 k 0 0.15333 0.3057 1
 Co1 Co 8 e 0.25 0.25 0.25 1
 Gd1 Gd 6 c 0.25 0 0.5 1
 Ge2 Ge 2 a 0 0 0 1


_exptl_crystal_colour                    ?
_exptl_crystal_density_meas              ?
_exptl_crystal_density_diffrn            8.10
_cell_measurement_temperature            ?
_cell_measurement_radiation              'X-rays, Cu Ka'
_cell_measurement_reflns_used            ?
_diffrn_ambient_temperature              ?
_diffrn_measurement_device               'Guinier film'
_diffrn_measurement_device_type          ?
_diffrn_radiation_type                   ?
_diffrn_reflns_number                    ?
_exptl_absorpt_coefficient_mu            ?
_exptl_absorpt_correction_type           ?
_computing_structure_solution            ?
_refine_ls_number_parameters             ?
_refine_ls_number_reflns                 ?
_refine_ls_R_factor_gt                   ?
_refine_ls_wR_factor_gt                  ?

# End of data set 536007

