##############################################################################
#                                                                            #
# Rh-Sn-Tb         # Tb2Rh3Sn5                                     #  537779 #
#                                                                            #
##############################################################################
#                                                                            #
#                           Pearson's Crystal Data                           #
#      Crystal Structure Database for Inorganic Compounds (on DVD)           #
#                              Release 2023/24                               #
#                  Editors: Pierre Villars and Karin Cenzual                 #
#                                                                            #
#   Copyright (c) ASM International & Material Phases Data System (MPDS),    #
# Switzerland & National Institute for Materials Science (NIMS), Japan, 2023 #
#                   All rights reserved. Version 2023.07                     #
#                                                                            #
#   This copy of Pearson's Crystal Data is licensed to:                      #
#   Hunter College - City University of New York                             #
#                                                                            #
##############################################################################

data_537779
_audit_creation_date                     2024-02-25
_audit_creation_method
;
Pearson's Crystal Data browser
;
#_database_code_PCD                      537779
_database_code_PDF                       04-009-0208

# Entry summary

_chemical_formula_structural             'Tb~2~ Rh~3~ Sn~5~'
_chemical_formula_sum                    'Rh3 Sn5 Tb2'
_chemical_name_mineral                   ?
_chemical_compound_source                ?
_chemical_name_structure_type            Y~2~Rh~3~Sn~5~,oS40,36
_chemical_formula_weight                 1220.0

# Bibliographic data

_publ_section_title
;
De nouveaux stannures ternaires de rhodium et d'elements des terres rares: TR~2~Rh~3~Sn~5~ ou TR= Y, Gd, Tb, Dy, Ho. Structure cristalline et proprietes electriques et magnetiques de Y~2~Rh~3~Sn~5~
;
_journal_coden_ASTM                      MRBUAC
_journal_name_full                       'Mater. Res. Bull.'
_journal_year                            1984
_journal_volume                          19
_journal_page_first                      1181
_journal_page_last                       1186
_journal_language                        French
loop_
 _publ_author_name
 _publ_author_address
'Meot Meyer M.'
;
National Center for Scientific Research (CNRS)
Laboratoire de Chimie du Solide Mineral (LCSM)
Vandoeuvre-les-Nancy
France
;
'Venturini G.'
;
National Center for Scientific Research (CNRS)
Laboratoire de Chimie du Solide Mineral (LCSM)
Vandoeuvre-les-Nancy
France
;
'Malaman B.'
;
National Center for Scientific Research (CNRS)
Laboratoire de Chimie du Solide Mineral (LCSM)
Vandoeuvre-les-Nancy
France
;
'Steinmetz J.'
;
National Center for Scientific Research (CNRS)
Laboratoire de Chimie du Solide Mineral (LCSM)
Vandoeuvre-les-Nancy
France
;
'Roques B.'
;
National Center for Scientific Research (CNRS)
Laboratoire de Chimie du Solide Mineral (LCSM)
Vandoeuvre-les-Nancy
France
;

# Standardized crystallographic data

_cell_length_a                           4.408
_cell_length_b                           26.22
_cell_length_c                           7.172
_cell_angle_alpha                        90
_cell_angle_beta                         90
_cell_angle_gamma                        90
_cell_volume                             828.9
_cell_formula_units_Z                    4
_space_group_IT_number                   36
_space_group_name_H-M_alt                'C m c 21'
loop_
 _space_group_symop_id
 _space_group_symop_operation_xyz
 1 'x, y, z'
 2 '-x, -y, 1/2+z'
 3 '-x, y, z'
 4 'x, -y, 1/2+z'
 5 '1/2+x, 1/2+y, z'
 6 '1/2-x, 1/2-y, 1/2+z'
 7 '1/2-x, 1/2+y, z'
 8 '1/2+x, 1/2-y, 1/2+z'

# Atomic positions taken from type-defining entry

loop_
 _atom_type_symbol
 Tb
 Sn
 Rh
loop_
 _atom_site_label
 _atom_site_type_symbol
 _atom_site_symmetry_multiplicity
 _atom_site_Wyckoff_symbol
 _atom_site_fract_x
 _atom_site_fract_y
 _atom_site_fract_z
 _atom_site_occupancy
 Tb1 Tb 4 a 0 0.023 0.2562 1
 Sn1 Sn 4 a 0 0.0965 0.6268 1
 Rh1 Rh 4 a 0 0.1066 0.0 1
 Sn2 Sn 4 a 0 0.2049 0.0708 1
 Sn3 Sn 4 a 0 0.21 0.4949 1
 Tb2 Tb 4 a 0 0.328 0.2743 1
 Rh2 Rh 4 a 0 0.4493 0.0382 1
 Sn4 Sn 4 a 0 0.4527 0.4217 1
 Sn5 Sn 4 a 0 0.6207 0.2535 1
 Rh3 Rh 4 a 0 0.7233 0.2843 1


_exptl_crystal_colour                    ?
_exptl_crystal_density_meas              ?
_exptl_crystal_density_diffrn            9.78
_cell_measurement_temperature            ?
_cell_measurement_radiation              X-rays
_cell_measurement_reflns_used            25
_diffrn_ambient_temperature              ?
_diffrn_measurement_device               'Guinier film'
_diffrn_measurement_device_type          ?
_diffrn_radiation_type                   ?
_diffrn_reflns_number                    ?
_exptl_absorpt_coefficient_mu            ?
_exptl_absorpt_correction_type           ?
_computing_structure_solution            ?
_refine_ls_number_parameters             ?
_refine_ls_number_reflns                 ?
_refine_ls_R_factor_gt                   ?
_refine_ls_wR_factor_gt                  ?

# End of data set 537779

