##############################################################################
#                                                                            #
# Ni-Sn-U          # U3Ni3Sn4                                      #  538500 #
#                                                                            #
##############################################################################
#                                                                            #
#                           Pearson's Crystal Data                           #
#      Crystal Structure Database for Inorganic Compounds (on DVD)           #
#                              Release 2023/24                               #
#                  Editors: Pierre Villars and Karin Cenzual                 #
#                                                                            #
#   Copyright (c) ASM International & Material Phases Data System (MPDS),    #
# Switzerland & National Institute for Materials Science (NIMS), Japan, 2023 #
#                   All rights reserved. Version 2023.07                     #
#                                                                            #
#   This copy of Pearson's Crystal Data is licensed to:                      #
#   Hunter College - City University of New York                             #
#                                                                            #
##############################################################################

data_538500
_audit_creation_date                     2024-02-25
_audit_creation_method
;
Pearson's Crystal Data browser
;
#_database_code_PCD                      538500
_database_code_PDF                       04-005-2181

# Entry summary

_chemical_formula_structural             'U~3~ Ni~3~ Sn~4~'
_chemical_formula_sum                    'Ni3 Sn4 U3'
_chemical_name_mineral                   ?
_chemical_compound_source                ?
_chemical_name_structure_type            Au~3~Y~3~Sb~4~,cI40,220
_chemical_formula_weight                 1364.9

# Bibliographic data

_publ_section_title
'Magnetic and crystallographic properties of UNiSn'                           
_journal_coden_ASTM                      JMMMDC
_journal_name_full                       'J. Magn. Magn. Mater.'
_journal_year                            1989
_journal_volume                          79
_journal_page_first                      355
_journal_page_last                       357
_journal_language                        English
loop_
 _publ_author_name
 _publ_author_address
'Yethiraj M.'
;
Los Alamos National Laboratory (LANL)
Los Alamos National Laboratory (LANL)
Los Alamos
U.S.A. New Mexico
;
'Robinson R.A.'
;
Los Alamos National Laboratory (LANL)
Los Alamos National Laboratory (LANL)
Los Alamos
U.S.A. New Mexico
;
'Rhyne J.J.'
;
National Institute of Standards and Technology (NIST)
Gaithersburg
U.S.A. Maryland
;
'Gotaas J.A.'
;
National Institute of Standards and Technology (NIST)
Gaithersburg
U.S.A. Maryland
;
'Buschow K.H.J.'
;
Philips Research Laboratories
Eindhoven
Netherlands
;

# Standardized crystallographic data

_cell_length_a                           9.3476
_cell_length_b                           9.3476
_cell_length_c                           9.3476
_cell_angle_alpha                        90
_cell_angle_beta                         90
_cell_angle_gamma                        90
_cell_volume                             816.8
_cell_formula_units_Z                    4
_space_group_IT_number                   220
_space_group_name_H-M_alt                'I -4 3 d'
loop_
 _space_group_symop_id
 _space_group_symop_operation_xyz
 1 'x, y, z'
 2 '1/2-x, y, -z'
 3 '1/4-x, 1/4+z, -1/4-y'
 4 '-x, 1/2-y, z'
 5 '-1/4-x, 1/4-z, 1/4+y'
 6 '1/2-y, z, -x'
 7 '1/4-y, 1/4+x, -1/4-z'
 8 '-y, 1/2-z, x'
 9 '-1/4-y, 1/4-x, 1/4+z'
 10 '1/2-z, x, -y'
 11 '1/4-z, 1/4+y, -1/4-x'
 12 '-z, 1/2-x, y'
 13 '-1/4-z, 1/4-y, 1/4+x'
 14 '1/4+x, -1/4-z, 1/4-y'
 15 '1/4+x, 1/4+z, 1/4+y'
 16 'x, -y, 1/2-z'
 17 '1/4+y, -1/4-x, 1/4-z'
 18 '1/4+y, 1/4+x, 1/4+z'
 19 'y, -z, 1/2-x'
 20 'y, z, x'
 21 '1/4+z, -1/4-y, 1/4-x'
 22 '1/4+z, 1/4+y, 1/4+x'
 23 'z, -x, 1/2-y'
 24 'z, x, y'
 25 '1/2+x, 1/2+y, 1/2+z'
 26 '1-x, 1/2+y, 1/2-z'
 27 '3/4-x, 3/4+z, 1/4-y'
 28 '1/2-x, 1-y, 1/2+z'
 29 '1/4-x, 3/4-z, 3/4+y'
 30 '1-y, 1/2+z, 1/2-x'
 31 '3/4-y, 3/4+x, 1/4-z'
 32 '1/2-y, 1-z, 1/2+x'
 33 '1/4-y, 3/4-x, 3/4+z'
 34 '1-z, 1/2+x, 1/2-y'
 35 '3/4-z, 3/4+y, 1/4-x'
 36 '1/2-z, 1-x, 1/2+y'
 37 '1/4-z, 3/4-y, 3/4+x'
 38 '3/4+x, 1/4-z, 3/4-y'
 39 '3/4+x, 3/4+z, 3/4+y'
 40 '1/2+x, 1/2-y, 1-z'
 41 '3/4+y, 1/4-x, 3/4-z'
 42 '3/4+y, 3/4+x, 3/4+z'
 43 '1/2+y, 1/2-z, 1-x'
 44 '1/2+y, 1/2+z, 1/2+x'
 45 '3/4+z, 1/4-y, 3/4-x'
 46 '3/4+z, 3/4+y, 3/4+x'
 47 '1/2+z, 1/2-x, 1-y'
 48 '1/2+z, 1/2+x, 1/2+y'
loop_
 _atom_type_symbol
 Sn
 Ni
 U
loop_
 _atom_site_label
 _atom_site_type_symbol
 _atom_site_symmetry_multiplicity
 _atom_site_Wyckoff_symbol
 _atom_site_fract_x
 _atom_site_fract_y
 _atom_site_fract_z
 _atom_site_occupancy
 Sn Sn 16 c 0.082 0.082 0.082 1
 Ni Ni 12 b 0.875 0 0.25 1
 U U 12 a 0.375 0 0.25 1


_exptl_crystal_colour                    ?
_exptl_crystal_density_meas              ?
_exptl_crystal_density_diffrn            11.10
_cell_measurement_temperature            11
_cell_measurement_radiation              neutrons
_cell_measurement_wavelength             1.5525
_pd_proc_wavelength                      1.5525
_cell_measurement_reflns_used            ?
_diffrn_ambient_temperature              11
_diffrn_measurement_device               'automatic diffractometer'
_diffrn_measurement_device_type
'U.S.A. Maryland, Gaithersburg, NIST Center for Neutron Research, NBSR'       
_diffrn_radiation_type                   neutrons
_diffrn_radiation_wavelength             1.5525
_diffrn_reflns_number                    ?
_exptl_absorpt_coefficient_mu            ?
_exptl_absorpt_correction_type           ?
_computing_structure_solution            'starting values from the literature'
_refine_ls_number_parameters             ?
_refine_ls_number_reflns                 ?
_refine_ls_R_factor_gt                   ?
_refine_ls_wR_factor_gt                  ?
_pd_proc_ls_proof_R_factor               0.0659
_pd_proc_ls_proof_wR_factor              0.0865
_refine_ls_R_I_factor                    ?

# End of data set 538500

