##############################################################################
#                                                                            #
# Fe-Nd-Si         # Nd6Fe13Si                                     #  539216 #
#                                                                            #
##############################################################################
#                                                                            #
#                           Pearson's Crystal Data                           #
#      Crystal Structure Database for Inorganic Compounds (on DVD)           #
#                              Release 2023/24                               #
#                  Editors: Pierre Villars and Karin Cenzual                 #
#                                                                            #
#   Copyright (c) ASM International & Material Phases Data System (MPDS),    #
# Switzerland & National Institute for Materials Science (NIMS), Japan, 2023 #
#                   All rights reserved. Version 2023.07                     #
#                                                                            #
#   This copy of Pearson's Crystal Data is licensed to:                      #
#   Hunter College - City University of New York                             #
#                                                                            #
##############################################################################

data_539216
_audit_creation_date                     2024-02-24
_audit_creation_method
;
Pearson's Crystal Data browser
;
#_database_code_PCD                      539216
_database_code_PDF                       04-005-2763

# Entry summary

_chemical_formula_structural             'Nd~6~ Fe~13~ Si'
_chemical_formula_sum                    'Fe13 Nd6 Si'
_chemical_name_mineral                   ?
_chemical_compound_source                ?
_chemical_name_structure_type            Pr~6~Fe~13~Ge,tI80,140
_chemical_formula_weight                 1619.5

# Bibliographic data

_publ_section_title
;
A new phase in Nd~2~Fe~14~B magnets. Crystal structure and magnetic properties of Nd~6~Fe~13~Si
;
_journal_coden_ASTM                      JCOMAH
_journal_name_full                       'J. Less-Common Met.'
_journal_year                            1990
_journal_volume                          166
_journal_page_first                      73
_journal_page_last                       79
_journal_language                        English
loop_
 _publ_author_name
 _publ_author_address
'Allemand J.'
;
Savoie University
Laboratoire de Structure de la Matiere (LSM)
Annecy
France
;
'Letant A.'
;
Savoie University
Laboratoire de Structure de la Matiere (LSM)
Annecy
France
;
'Moreau J.M.'
;
Savoie University
Laboratoire de Structure de la Matiere (LSM)
Annecy
France
;
'Nozieres J.P.'
;
National Center for Scientific Research (CNRS)
Laboratoire Louis Neel (LLN)
Grenoble
France
;
'Perrier De La Bathie R.'
;
National Center for Scientific Research (CNRS)
Laboratoire Louis Neel (LLN)
Grenoble
France
;

# Standardized crystallographic data

_cell_length_a                           8.034
_cell_length_b                           8.034
_cell_length_c                           22.78
_cell_angle_alpha                        90
_cell_angle_beta                         90
_cell_angle_gamma                        90
_cell_volume                             1470.3
_cell_formula_units_Z                    4
_space_group_IT_number                   140
_space_group_name_H-M_alt                'I 4/m c m'
loop_
 _space_group_symop_id
 _space_group_symop_operation_xyz
 1 'x, y, z'
 2 '-x, -y, -z'
 3 '-x, -y, z'
 4 '-x, y, 1/2-z'
 5 '-x, y, 1/2+z'
 6 '-y, -x, 1/2-z'
 7 '-y, -x, 1/2+z'
 8 '-y, x, -z'
 9 '-y, x, z'
 10 'x, -y, 1/2-z'
 11 'x, -y, 1/2+z'
 12 'x, y, -z'
 13 'y, -x, -z'
 14 'y, -x, z'
 15 'y, x, 1/2-z'
 16 'y, x, 1/2+z'
 17 '1/2+x, 1/2+y, 1/2+z'
 18 '1/2-x, 1/2-y, 1/2-z'
 19 '1/2-x, 1/2-y, 1/2+z'
 20 '1/2-x, 1/2+y, 1-z'
 21 '1/2-x, 1/2+y, 1+z'
 22 '1/2-y, 1/2-x, 1-z'
 23 '1/2-y, 1/2-x, 1+z'
 24 '1/2-y, 1/2+x, 1/2-z'
 25 '1/2-y, 1/2+x, 1/2+z'
 26 '1/2+x, 1/2-y, 1-z'
 27 '1/2+x, 1/2-y, 1+z'
 28 '1/2+x, 1/2+y, 1/2-z'
 29 '1/2+y, 1/2-x, 1/2-z'
 30 '1/2+y, 1/2-x, 1/2+z'
 31 '1/2+y, 1/2+x, 1-z'
 32 '1/2+y, 1/2+x, 1+z'
loop_
 _atom_type_symbol
 Nd
 Fe
 Si
loop_
 _atom_site_label
 _atom_site_type_symbol
 _atom_site_symmetry_multiplicity
 _atom_site_Wyckoff_symbol
 _atom_site_fract_x
 _atom_site_fract_y
 _atom_site_fract_z
 _atom_site_occupancy
 Nd(2) Nd 16 l 0.1663 0.6663 0.1904 1
 Fe(2) Fe 16 l 0.1788 0.6788 0.0607 1
 Fe(3) Fe 16 l 0.614 0.114 0.0966 1
 Fe(4) Fe 16 k 0.0666 0.2079 0 1
 Nd(1) Nd 8 f 0 0 0.1104 1
 Fe(1) Fe 4 d 0 0.5 0 1
 Si(1) Si 4 a 0 0 0.25 1


_exptl_crystal_colour                    ?
_exptl_crystal_density_meas              ?
_exptl_crystal_density_diffrn            7.32
_cell_measurement_temperature            ?
_cell_measurement_radiation              'X-rays, Mo Ka'
_cell_measurement_wavelength             0.71069
_cell_measurement_reflns_used            25
_diffrn_ambient_temperature              ?
_diffrn_measurement_device               'automatic diffractometer'
_diffrn_measurement_device_type          'Enraf-Nonius CAD4'
_diffrn_radiation_type                   'X-rays, Mo Ka'
_diffrn_radiation_wavelength             0.71069
_diffrn_reflns_number                    671
_exptl_absorpt_coefficient_mu            ?
_exptl_absorpt_correction_type           ?
_computing_structure_solution            'direct methods'
_refine_ls_number_parameters             22
_refine_ls_number_reflns                 412
_refine_ls_R_factor_gt                   0.07
_refine_ls_wR_factor_gt                  ?

# End of data set 539216

