##############################################################################
#                                                                            #
# Rh-Si-Y          # Y2Rh3Si5 mon                                  #  539565 #
#                                                                            #
##############################################################################
#                                                                            #
#                           Pearson's Crystal Data                           #
#      Crystal Structure Database for Inorganic Compounds (on DVD)           #
#                              Release 2023/24                               #
#                  Editors: Pierre Villars and Karin Cenzual                 #
#                                                                            #
#   Copyright (c) ASM International & Material Phases Data System (MPDS),    #
# Switzerland & National Institute for Materials Science (NIMS), Japan, 2023 #
#                   All rights reserved. Version 2023.07                     #
#                                                                            #
#   This copy of Pearson's Crystal Data is licensed to:                      #
#   Hunter College - City University of New York                             #
#                                                                            #
##############################################################################

data_539565
_audit_creation_date                     2024-02-25
_audit_creation_method
;
Pearson's Crystal Data browser
;
#_database_code_PCD                      539565
_database_code_PDF                       04-005-3043

# Entry summary

_chemical_formula_structural             'Y~2~ Rh~3~ Si~5~'
_chemical_formula_sum                    'Rh3 Si5 Y2'
_chemical_name_mineral                   ?
_chemical_compound_source                ?
_chemical_name_structure_type            Lu~2~Co~3~Si~5~,mS40,15
_chemical_formula_weight                 627.0

# Bibliographic data

_publ_section_title
;
Y~2~Rh~3~Si~5~, Dy~2~Rh~3~Si~5~ with a monoclinic structural deformation variant of the orthorhombic U~2~Co~3~Si~5~-type structure
;
_journal_coden_ASTM                      JCOMAH
_journal_name_full                       'J. Less-Common Met.'
_journal_year                            1987
_journal_volume                          128
_journal_page_first                      125
_journal_page_last                       129
_journal_language                        English
loop_
 _publ_author_name
 _publ_author_address
'Paccard D.'
;
Savoie University
Laboratoire de Structure de la Matiere (LSM)
Annecy
France
;
'Paccard L.'
;
Savoie University
Laboratoire de Structure de la Matiere (LSM)
Annecy
France
;

# Standardized crystallographic data

_cell_length_a                           11.078
_cell_length_b                           11.701
_cell_length_c                           5.656
_cell_angle_alpha                        90
_cell_angle_beta                         118.51
_cell_angle_gamma                        90
_cell_volume                             644.2
_cell_formula_units_Z                    4
_space_group_IT_number                   15
_space_group_name_H-M_alt                'C 1 2/c 1'
loop_
 _space_group_symop_id
 _space_group_symop_operation_xyz
 1 'x, y, z'
 2 '-x, -y, -z'
 3 '-x, y, 1/2-z'
 4 'x, -y, 1/2+z'
 5 '1/2+x, 1/2+y, z'
 6 '1/2-x, 1/2-y, -z'
 7 '1/2-x, 1/2+y, 1/2-z'
 8 '1/2+x, 1/2-y, 1/2+z'
loop_
 _atom_type_symbol
 Rh
 Y
 Si
loop_
 _atom_site_label
 _atom_site_type_symbol
 _atom_site_symmetry_multiplicity
 _atom_site_Wyckoff_symbol
 _atom_site_fract_x
 _atom_site_fract_y
 _atom_site_fract_z
 _atom_site_occupancy
 Rh1 Rh 8 f 0.1017 0.3603 0.1236 1
 Y Y 8 f 0.2684 0.1339 0.263 1
 Si1 Si 8 f 0.335 0.3962 0.331 1
 Rh2 Rh 4 e 0 0.0014 0.25 1
 Si2 Si 4 e 0 0.207 0.25 1
 Si3 Si 4 e 0 0.515 0.25 1
 Si4 Si 4 e 0 0.782 0.25 1


_exptl_crystal_colour                    ?
_exptl_crystal_density_meas              ?
_exptl_crystal_density_diffrn            6.46
_cell_measurement_temperature            293
_cell_measurement_radiation              'X-rays, Mo Ka'
_cell_measurement_reflns_used            23
_diffrn_ambient_temperature              293
_diffrn_measurement_device               'automatic diffractometer'
_diffrn_measurement_device_type          'Enraf-Nonius CAD4'
_diffrn_radiation_type                   'X-rays, Mo Ka'
_diffrn_reflns_number                    ?
_exptl_absorpt_coefficient_mu            ?
_exptl_absorpt_correction_type           ?
_computing_structure_solution            'starting values from the literature'
_refine_ls_number_parameters             21
_refine_ls_number_reflns                 ?
_refine_ls_R_factor_gt                   0.088
_refine_ls_wR_factor_gt                  ?

# End of data set 539565

