##############################################################################
#                                                                            #
# Ce-Ni-Si         # Ce14Ni6Si11                                   #  539693 #
#                                                                            #
##############################################################################
#                                                                            #
#                           Pearson's Crystal Data                           #
#      Crystal Structure Database for Inorganic Compounds (on DVD)           #
#                              Release 2023/24                               #
#                  Editors: Pierre Villars and Karin Cenzual                 #
#                                                                            #
#   Copyright (c) ASM International & Material Phases Data System (MPDS),    #
# Switzerland & National Institute for Materials Science (NIMS), Japan, 2023 #
#                   All rights reserved. Version 2023.07                     #
#                                                                            #
#   This copy of Pearson's Crystal Data is licensed to:                      #
#   Hunter College - City University of New York                             #
#                                                                            #
##############################################################################

data_539693
_audit_creation_date                     2024-02-24
_audit_creation_method
;
Pearson's Crystal Data browser
;
#_database_code_PCD                      539693
_database_code_PDF                       04-009-0300

# Entry summary

_chemical_formula_structural             'Ce~14~ Ni~6~ Si~11~'
_chemical_formula_sum                    'Ce14 Ni6 Si11'
_chemical_name_mineral                   ?
_chemical_compound_source                ?
_chemical_name_structure_type            Pr~14~Ni~6~Si~11~,mS124,12
_chemical_formula_weight                 2622.8

# Bibliographic data

_publ_section_title
'Crystal data for Ce~14~Ni~6~Si~11~ isotypic with Pr~14~Ni~6~Si~11~'          
_journal_coden_ASTM                      JCOMAH
_journal_name_full                       'J. Less-Common Met.'
_journal_year                            1984
_journal_volume                          102
_journal_page_first                      L27
_journal_page_last                       L29
_journal_language                        English
loop_
 _publ_author_name
 _publ_author_address
'Hovestreydt E.'
;
Geneva University (UNIGE)
Laboratoire de Cristallographie aux Rayons X
Geneva
Switzerland
;

# Standardized crystallographic data

_cell_length_a                           34.08
_cell_length_b                           4.2456
_cell_length_c                           21.37
_cell_angle_alpha                        90
_cell_angle_beta                         113.52
_cell_angle_gamma                        90
_cell_volume                             2835.14
_cell_formula_units_Z                    4
_space_group_IT_number                   12
_space_group_name_H-M_alt                'C 1 2/m 1'
loop_
 _space_group_symop_id
 _space_group_symop_operation_xyz
 1 'x, y, z'
 2 '-x, -y, -z'
 3 '-x, y, -z'
 4 'x, -y, z'
 5 '1/2+x, 1/2+y, z'
 6 '1/2-x, 1/2-y, -z'
 7 '1/2-x, 1/2+y, -z'
 8 '1/2+x, 1/2-y, z'
loop_
 _atom_type_symbol
 Ce
 Ni
 Si
loop_
 _atom_site_label
 _atom_site_type_symbol
 _atom_site_symmetry_multiplicity
 _atom_site_Wyckoff_symbol
 _atom_site_fract_x
 _atom_site_fract_y
 _atom_site_fract_z
 _atom_site_occupancy
 Ce(1) Ce 4 i 0.00438 0 0.1829 1
 Ni(1) Ni 4 i 0.0318 0 0.4203 1
 Si(1) Si 4 i 0.0433 0 0.6202 1
 Si(2) Si 4 i 0.0678 0 0.3446 1
 Si(3) Si 4 i 0.075 0 0.5352 1
 Ce(2) Ce 4 i 0.10553 0 0.7816 1
 Ce(3) Ce 4 i 0.11347 0 0.1475 1
 Ni(2) Ni 4 i 0.1448 0 0.3866 1
 Ni(3) Ni 4 i 0.1501 0 0.5832 1
 Si(4) Si 4 i 0.1809 0 0.3069 1
 Si(5) Si 4 i 0.1866 0 0.7077 1
 Si(6) Si 4 i 0.1853 0 0.5076 1
 Si(7) Si 4 i 0.1905 0 0.1116 1
 Ce(4) Ce 4 i 0.28607 0 0.3749 1
 Ce(5) Ce 4 i 0.28876 0 0.5749 1
 Ce(6) Ce 4 i 0.2906 0 0.1773 1
 Ni(4) Ni 4 i 0.3554 0 0.115 1
 Ce(7) Ce 4 i 0.38571 0 0.3538 1
 Ce(8) Ce 4 i 0.3909 0 0.5374 1
 Si(8) Si 4 i 0.4326 0 0.1561 1
 Ni(5) Ni 4 i 0.4673 0 0.0788 1
 Ce(9) Ce 4 i 0.49593 0 0.3184 1
 Si(9) Si 4 i 0.5434 0 0.1207 1
 Si(10) Si 4 i 0.5752 0 0.0364 1
 Ce(10) Ce 4 i 0.60736 0 0.2827 1
 Ni(6) Ni 4 i 0.6511 0 0.087 1
 Ce(11) Ce 4 i 0.7115 0 0.2297 1
 Ce(12) Ce 4 i 0.71204 0 0.0239 1
 Si(11) Si 4 i 0.8138 0 0.0899 1
 Ce(13) Ce 4 i 0.89114 0 0.0372 1
 Ce(14) Ce 2 d 0 0.5 0.5 1
 Ce(15) Ce 2 a 0 0 0 1


_exptl_crystal_colour                    ?
_exptl_crystal_density_meas              ?
_exptl_crystal_density_diffrn            6.14
_cell_measurement_temperature            ?
_cell_measurement_radiation              'X-rays, Mo Ka'
_cell_measurement_reflns_used            28
_diffrn_ambient_temperature              295
_diffrn_measurement_device               'automatic diffractometer'
_diffrn_measurement_device_type          'Philips PW1100'
_diffrn_radiation_type                   'X-rays, Mo Ka'
_diffrn_reflns_number                    4288
_exptl_absorpt_coefficient_mu            26.46
_exptl_absorpt_correction_type           ?
_computing_structure_solution            'starting values from the literature'
_refine_ls_number_parameters             157
_refine_ls_number_reflns                 3526
_refine_ls_R_factor_gt                   0.046
_refine_ls_wR_factor_gt                  0.041

# End of data set 539693

