##############################################################################
#                                                                            #
# Fe-Lu-Si         # Lu2Fe3Si5                                     #  539691 #
#                                                                            #
##############################################################################
#                                                                            #
#                           Pearson's Crystal Data                           #
#      Crystal Structure Database for Inorganic Compounds (on DVD)           #
#                              Release 2023/24                               #
#                  Editors: Pierre Villars and Karin Cenzual                 #
#                                                                            #
#   Copyright (c) ASM International & Material Phases Data System (MPDS),    #
# Switzerland & National Institute for Materials Science (NIMS), Japan, 2023 #
#                   All rights reserved. Version 2023.07                     #
#                                                                            #
#   This copy of Pearson's Crystal Data is licensed to:                      #
#   Hunter College - City University of New York                             #
#                                                                            #
##############################################################################

data_539691
_audit_creation_date                     2024-02-24
_audit_creation_method
;
Pearson's Crystal Data browser
;
#_database_code_PCD                      539691
_database_code_PDF                       04-005-3151

# Entry summary

_chemical_formula_structural             'Lu~2~ Fe~3~ Si~5~'
_chemical_formula_sum                    'Fe3 Lu2 Si5'
_chemical_name_mineral                   ?
_chemical_compound_source                ?
_chemical_name_structure_type            U~2~Mn~3~Si~5~,tP40,128
_chemical_formula_weight                 657.9

# Bibliographic data

_publ_section_title
'Refinement of Lu~2~Fe~3~Si~5~ with the Sc~2~Fe~3~Si~5~-type structure'       
_journal_coden_ASTM                      JCOMAH
_journal_name_full                       'J. Less-Common Met.'
_journal_year                            1984
_journal_volume                          102
_journal_page_first                      L23
_journal_page_last                       L25
_journal_language                        English
loop_
 _publ_author_name
 _publ_author_address
'Chabot B.'
;
Geneva University (UNIGE)
Laboratoire de Cristallographie aux Rayons X
Geneva
Switzerland
;

# Standardized crystallographic data

_cell_length_a                           10.346
_cell_length_b                           10.346
_cell_length_c                           5.3875
_cell_angle_alpha                        90
_cell_angle_beta                         90
_cell_angle_gamma                        90
_cell_volume                             576.7
_cell_formula_units_Z                    4
_space_group_IT_number                   128
_space_group_name_H-M_alt                'P 4/m n c'
loop_
 _space_group_symop_id
 _space_group_symop_operation_xyz
 1 'x, y, z'
 2 '1/2-x, 1/2+y, 1/2-z'
 3 '1/2-x, 1/2+y, 1/2+z'
 4 '-x, -y, -z'
 5 '-x, -y, z'
 6 '1/2-y, 1/2-x, 1/2-z'
 7 '1/2-y, 1/2-x, 1/2+z'
 8 '-y, x, -z'
 9 '-y, x, z'
 10 '1/2+x, 1/2-y, 1/2-z'
 11 '1/2+x, 1/2-y, 1/2+z'
 12 'x, y, -z'
 13 '1/2+y, 1/2+x, 1/2-z'
 14 '1/2+y, 1/2+x, 1/2+z'
 15 'y, -x, -z'
 16 'y, -x, z'
loop_
 _atom_type_symbol
 Si
 Fe
 Lu
loop_
 _atom_site_label
 _atom_site_type_symbol
 _atom_site_symmetry_multiplicity
 _atom_site_Wyckoff_symbol
 _atom_site_fract_x
 _atom_site_fract_y
 _atom_site_fract_z
 _atom_site_occupancy
 Si(1) Si 8 h 0.0231 0.3188 0 1
 Fe(1) Fe 8 h 0.1428 0.1228 0 1
 Lu Lu 8 h 0.2625 0.4306 0 1
 Si(2) Si 8 g 0.1786 0.6786 0.25 1
 Si(3) Si 4 e 0 0 0.249 1
 Fe(2) Fe 4 d 0 0.5 0.25 1


_exptl_crystal_colour                    ?
_exptl_crystal_density_meas              ?
_exptl_crystal_density_diffrn            7.58
_cell_measurement_temperature            ?
_cell_measurement_radiation              'X-rays, Mo Ka'
_cell_measurement_wavelength             0.71069
_cell_measurement_reflns_used            ?
_diffrn_ambient_temperature              ?
_diffrn_measurement_device               'automatic diffractometer'
_diffrn_measurement_device_type          'Philips PW1100'
_diffrn_radiation_type                   'X-rays, Mo Ka'
_diffrn_radiation_wavelength             0.71069
_diffrn_reflns_number                    1160
_exptl_absorpt_coefficient_mu            44
_exptl_absorpt_correction_type           ?
_computing_structure_solution            'starting values from the literature'
_refine_ls_number_parameters             15
_refine_ls_number_reflns                 433
_refine_ls_R_factor_gt                   0.054
_refine_ls_wR_factor_gt                  ?

# End of data set 539691

