##############################################################################
#                                                                            #
# Ni-Si-Y          # Y2Ni3Si5                                      #  539711 #
#                                                                            #
##############################################################################
#                                                                            #
#                           Pearson's Crystal Data                           #
#      Crystal Structure Database for Inorganic Compounds (on DVD)           #
#                              Release 2023/24                               #
#                  Editors: Pierre Villars and Karin Cenzual                 #
#                                                                            #
#   Copyright (c) ASM International & Material Phases Data System (MPDS),    #
# Switzerland & National Institute for Materials Science (NIMS), Japan, 2023 #
#                   All rights reserved. Version 2023.07                     #
#                                                                            #
#   This copy of Pearson's Crystal Data is licensed to:                      #
#   Hunter College - City University of New York                             #
#                                                                            #
##############################################################################

data_539711
_audit_creation_date                     2024-02-25
_audit_creation_method
;
Pearson's Crystal Data browser
;
#_database_code_PCD                      539711
_database_code_PDF                       04-005-3167

# Entry summary

_chemical_formula_structural             'Y~2~ Ni~3~ Si~5~'
_chemical_formula_sum                    'Ni3 Si5 Y2'
_chemical_name_mineral                   ?
_chemical_compound_source                ?
_chemical_name_structure_type            U~2~Co~3~Si~5~,oI40,72
_chemical_formula_weight                 494.3

# Bibliographic data

_publ_section_title
;
Ce~2~Co~3~Si~5~ and R~2~Ni~3~Si~5~ (R= Ce, Dy, Y) with the orthorhombic U~2~Co~3~Si~5~-type structure and the structural relationship with the tetragonal Sc~2~Fe~3~Si~5~-type structure
;
_journal_coden_ASTM                      JCOMAH
_journal_name_full                       'J. Less-Common Met.'
_journal_year                            1984
_journal_volume                          97
_journal_page_first                      285
_journal_page_last                       290
_journal_language                        English
loop_
 _publ_author_name
 _publ_author_address
'Chabot B.'
;
Geneva University (UNIGE)
Laboratoire de Cristallographie aux Rayons X
Geneva
Switzerland
;
'Parthe E.'
;
Geneva University (UNIGE)
Laboratoire de Cristallographie aux Rayons X
Geneva
Switzerland
;

# Standardized crystallographic data

_cell_length_a                           9.5651
_cell_length_b                           11.1284
_cell_length_c                           5.6453
_cell_angle_alpha                        90
_cell_angle_beta                         90
_cell_angle_gamma                        90
_cell_volume                             600.9
_cell_formula_units_Z                    4
_space_group_IT_number                   72
_space_group_name_H-M_alt                'I b a m'
loop_
 _space_group_symop_id
 _space_group_symop_operation_xyz
 1 'x, y, z'
 2 '-x, -y, -z'
 3 '-x, -y, z'
 4 '-x, y, 1/2-z'
 5 '-x, y, 1/2+z'
 6 'x, -y, 1/2-z'
 7 'x, -y, 1/2+z'
 8 'x, y, -z'
 9 '1/2+x, 1/2+y, 1/2+z'
 10 '1/2-x, 1/2-y, 1/2-z'
 11 '1/2-x, 1/2-y, 1/2+z'
 12 '1/2-x, 1/2+y, 1-z'
 13 '1/2-x, 1/2+y, 1+z'
 14 '1/2+x, 1/2-y, 1-z'
 15 '1/2+x, 1/2-y, 1+z'
 16 '1/2+x, 1/2+y, 1/2-z'
loop_
 _atom_type_symbol
 Ni
 Y
 Si
loop_
 _atom_site_label
 _atom_site_type_symbol
 _atom_site_symmetry_multiplicity
 _atom_site_Wyckoff_symbol
 _atom_site_fract_x
 _atom_site_fract_y
 _atom_site_fract_z
 _atom_site_occupancy
 Ni(1) Ni 8 j 0.1123 0.1342 0 1
 Y Y 8 j 0.2632 0.3691 0 1
 Si(1) Si 8 j 0.3475 0.1074 0 1
 Si(2) Si 8 g 0 0.2663 0.25 1
 Ni(2) Ni 4 b 0.5 0 0.25 1
 Si(3) Si 4 a 0 0 0.25 1


_exptl_crystal_colour                    ?
_exptl_crystal_density_meas              ?
_exptl_crystal_density_diffrn            5.46
_cell_measurement_temperature            293
_cell_measurement_radiation              'X-rays, Mo Ka'
_cell_measurement_wavelength             0.71069
_cell_measurement_reflns_used            28
_diffrn_ambient_temperature              293
_diffrn_measurement_device               'automatic diffractometer'
_diffrn_measurement_device_type          'Philips PW1100'
_diffrn_radiation_type                   'X-rays, Mo Ka'
_diffrn_radiation_wavelength             0.71069
_diffrn_reflns_number                    ?
_diffrn_reflns_theta_min                 3.6
_diffrn_reflns_theta_max                 30
_exptl_absorpt_coefficient_mu            29.8
_exptl_absorpt_correction_type           spherical
_computing_structure_solution            'starting values from the literature'
_refine_ls_number_parameters             ?
_refine_ls_number_reflns                 422
_refine_ls_R_factor_gt                   0.074
_refine_ls_wR_factor_gt                  ?

# End of data set 539711

