##############################################################################
#                                                                            #
# Ge-Rh-U          # URhGe2                                        #  540532 #
#                                                                            #
##############################################################################
#                                                                            #
#                           Pearson's Crystal Data                           #
#      Crystal Structure Database for Inorganic Compounds (on DVD)           #
#                              Release 2023/24                               #
#                  Editors: Pierre Villars and Karin Cenzual                 #
#                                                                            #
#   Copyright (c) ASM International & Material Phases Data System (MPDS),    #
# Switzerland & National Institute for Materials Science (NIMS), Japan, 2023 #
#                   All rights reserved. Version 2023.07                     #
#                                                                            #
#   This copy of Pearson's Crystal Data is licensed to:                      #
#   Hunter College - City University of New York                             #
#                                                                            #
##############################################################################

data_540532
_audit_creation_date                     2024-02-25
_audit_creation_method
;
Pearson's Crystal Data browser
;
#_database_code_PCD                      540532
_database_code_PDF                       04-005-3844

# Entry summary

_chemical_formula_structural             'U Rh Ge~2~'
_chemical_formula_sum                    'Ge2 Rh U'
_chemical_name_mineral                   ?
_chemical_compound_source                ?
_chemical_name_structure_type            YIrGe~2~,oI32,71
_chemical_formula_weight                 486.1

# Bibliographic data

_publ_section_title
;
Magnetic and electrical behavior of new uranium ternary germanides URhGe~2~ and UIrGe~2~
;
_journal_coden_ASTM                      MRBUAC
_journal_name_full                       'Mater. Res. Bull.'
_journal_year                            1989
_journal_volume                          24
_journal_page_first                      1111
_journal_page_last                       1118
_journal_language                        English
loop_
 _publ_author_name
 _publ_author_address
'Hickey E.'
;
Bordeaux I University
Laboratoire de Chimie du Solide (LCS)
Talence
France
;
'Chevalier B.'
;
Bordeaux I University
Laboratoire de Chimie du Solide (LCS)
Talence
France
;
'Etourneau J.R.'
;
Bordeaux I University
Laboratoire de Chimie du Solide (LCS)
Talence
France
;

# Standardized crystallographic data

_cell_length_a                           4.294
_cell_length_b                           8.726
_cell_length_c                           15.98
_cell_angle_alpha                        90
_cell_angle_beta                         90
_cell_angle_gamma                        90
_cell_volume                             598.8
_cell_formula_units_Z                    8
_space_group_IT_number                   71
_space_group_name_H-M_alt                'I m m m'
loop_
 _space_group_symop_id
 _space_group_symop_operation_xyz
 1 'x, y, z'
 2 '-x, -y, -z'
 3 '-x, -y, z'
 4 '-x, y, -z'
 5 '-x, y, z'
 6 'x, -y, -z'
 7 'x, -y, z'
 8 'x, y, -z'
 9 '1/2+x, 1/2+y, 1/2+z'
 10 '1/2-x, 1/2-y, 1/2-z'
 11 '1/2-x, 1/2-y, 1/2+z'
 12 '1/2-x, 1/2+y, 1/2-z'
 13 '1/2-x, 1/2+y, 1/2+z'
 14 '1/2+x, 1/2-y, 1/2-z'
 15 '1/2+x, 1/2-y, 1/2+z'
 16 '1/2+x, 1/2+y, 1/2-z'

# Atomic positions taken from type-defining entry

loop_
 _atom_type_symbol
 Rh
 Ge
 U
loop_
 _atom_site_label
 _atom_site_type_symbol
 _atom_site_symmetry_multiplicity
 _atom_site_Wyckoff_symbol
 _atom_site_fract_x
 _atom_site_fract_y
 _atom_site_fract_z
 _atom_site_occupancy
 Rh1 Rh 8 l 0 0.2494 0.3541 1
 Ge1 Ge 8 l 0 0.3474 0.2002 1
 Ge2 Ge 4 j 0.5 0 0.077 1
 U1 U 4 i 0 0 0.2057 1
 Ge3 Ge 4 i 0 0 0.4215 1
 U2 U 4 g 0 0.2393 0 1


_exptl_crystal_colour                    ?
_exptl_crystal_density_meas              ?
_exptl_crystal_density_diffrn            10.79
_cell_measurement_temperature            ?
_cell_measurement_radiation              X-rays
_cell_measurement_reflns_used            ?
_diffrn_ambient_temperature              ?
_diffrn_measurement_device               film
_diffrn_measurement_device_type          ?
_diffrn_radiation_type                   ?
_diffrn_reflns_number                    ?
_exptl_absorpt_coefficient_mu            ?
_exptl_absorpt_correction_type           ?
_computing_structure_solution            ?
_refine_ls_number_parameters             ?
_refine_ls_number_reflns                 ?
_refine_ls_R_factor_gt                   ?
_refine_ls_wR_factor_gt                  ?

# Published diffraction lines

loop_
 _refln_index_h
 _refln_index_k
 _refln_index_l
 _refln_d_spacing
 _refln_intensity_meas
 0 1 1 7.674 1
 0 3 1 4.54 1
 0 0 2 4.375 1
 1 0 1 3.843 2
 0 2 2 3.835 5
 1 2 1 3.467 2
 1 3 0 3.346 1
 0 5 1 3.009 5
 1 3 2 2.656 8
 1 5 0 2.561 8
 0 3 3 2.554 3
 1 0 3 2.408 3
 1 2 3 2.304 5
 0 6 2 2.273 5
 0 0 4 2.181 5
 2 0 0 2.147 7
 0 2 4 2.104 1
 1 7 0 2.01 1
 2 2 2 1.872 2
 1 3 4 1.829 3
 0 8 2 1.816 3
 0 7 3 1.796 2
 2 6 0 1.671 1
 1 5 4 1.661 3
 2 3 3 1.643 2
 1 9 0 1.64 3
 1 0 5 1.616 1

# End of data set 540532

