##############################################################################
#                                                                            #
# Er-Fe-Sn         # ErFe6Sn6                                      #  540622 #
#                                                                            #
##############################################################################
#                                                                            #
#                           Pearson's Crystal Data                           #
#      Crystal Structure Database for Inorganic Compounds (on DVD)           #
#                              Release 2023/24                               #
#                  Editors: Pierre Villars and Karin Cenzual                 #
#                                                                            #
#   Copyright (c) ASM International & Material Phases Data System (MPDS),    #
# Switzerland & National Institute for Materials Science (NIMS), Japan, 2023 #
#                   All rights reserved. Version 2023.07                     #
#                                                                            #
#   This copy of Pearson's Crystal Data is licensed to:                      #
#   Hunter College - City University of New York                             #
#                                                                            #
##############################################################################

data_540622
_audit_creation_date                     2024-02-24
_audit_creation_method
;
Pearson's Crystal Data browser
;
#_database_code_PCD                      540622
_database_code_PDF                       04-009-0356

# Entry summary

_chemical_formula_structural             'Er Fe~6~ Sn~6~'
_chemical_formula_sum                    'Er Fe6 Sn6'
_chemical_name_mineral                   ?
_chemical_compound_source                ?
_chemical_name_structure_type            ErFe~6~Sn~6~,oS104,63
_chemical_formula_weight                 1214.5

# Bibliographic data

_publ_section_title
;
Crystal structures of RFe~6~Sn~5~ (R= Sc, Y, Gd-Tm, Lu) rare-earth iron stannides
;
_journal_coden_ASTM                      MRBUAC
_journal_name_full                       'Mater. Res. Bull.'
_journal_year                            1991
_journal_volume                          26
_journal_page_first                      1331
_journal_page_last                       1338
_journal_language                        English
loop_
 _publ_author_name
 _publ_author_address
'Idrissi B.C.'
;
Nancy I Henri Poincare University
Laboratoire de Chimie du Solide Mineral (LCSM)
Vandoeuvre-les-Nancy
France
;
'Venturini G.'
;
Nancy I Henri Poincare University
Laboratoire de Chimie du Solide Mineral (LCSM)
Vandoeuvre-les-Nancy
France
;
'Malaman B.'
;
Nancy I Henri Poincare University
Laboratoire de Chimie du Solide Mineral (LCSM)
Vandoeuvre-les-Nancy
France
;

# Standardized crystallographic data

_cell_length_a                           8.906
_cell_length_b                           37.25
_cell_length_c                           5.377
_cell_angle_alpha                        90
_cell_angle_beta                         90
_cell_angle_gamma                        90
_cell_volume                             1783.8
_cell_formula_units_Z                    8
_space_group_IT_number                   63
_space_group_name_H-M_alt                'C m c m'
loop_
 _space_group_symop_id
 _space_group_symop_operation_xyz
 1 'x, y, z'
 2 '-x, -y, -z'
 3 '-x, -y, 1/2+z'
 4 '-x, y, 1/2-z'
 5 '-x, y, z'
 6 'x, -y, -z'
 7 'x, -y, 1/2+z'
 8 'x, y, 1/2-z'
 9 '1/2+x, 1/2+y, z'
 10 '1/2-x, 1/2-y, -z'
 11 '1/2-x, 1/2-y, 1/2+z'
 12 '1/2-x, 1/2+y, 1/2-z'
 13 '1/2-x, 1/2+y, z'
 14 '1/2+x, 1/2-y, -z'
 15 '1/2+x, 1/2-y, 1/2+z'
 16 '1/2+x, 1/2+y, 1/2-z'
loop_
 _atom_type_symbol
 Fe
 Sn
 Er
loop_
 _atom_site_label
 _atom_site_type_symbol
 _atom_site_symmetry_multiplicity
 _atom_site_Wyckoff_symbol
 _atom_site_fract_x
 _atom_site_fract_y
 _atom_site_fract_z
 _atom_site_occupancy
 Fe1 Fe 16 h 0.253 0.125 0.0 1
 Sn9 Sn 8 g 0.163 0.1875 0.25 1
 Fe3 Fe 8 g 0.247 0.3125 0.25 1
 Fe4 Fe 8 g 0.253 0.0625 0.25 1
 Sn10 Sn 8 g 0.337 0.4375 0.25 1
 Fe2 Fe 8 e 0.253 0 0 1
 Fe5 Fe 8 d 0.25 0.25 0 1
 Sn7 Sn 4 c 0 0.02083 0.25 1
 Sn6 Sn 4 c 0 0.10417 0.25 1
 Sn1 Sn 4 c 0 0.27083 0.25 1
 Sn3 Sn 4 c 0 0.35417 0.25 1
 Er2 Er 4 c 0 0.4375 0.25 1
 Sn8 Sn 4 c 0 0.52083 0.25 1
 Sn5 Sn 4 c 0 0.60417 0.25 1
 Er1 Er 4 c 0 0.6875 0.25 1
 Sn2 Sn 4 c 0 0.77083 0.25 1
 Sn4 Sn 4 c 0 0.85417 0.25 1


_exptl_crystal_colour                    ?
_exptl_crystal_density_meas              ?
_exptl_crystal_density_diffrn            9.04
_cell_measurement_temperature            ?
_cell_measurement_radiation              'X-rays, Cu Ka'
_cell_measurement_reflns_used            ?
_diffrn_ambient_temperature              ?
_diffrn_measurement_device               'automatic diffractometer'
_diffrn_measurement_device_type          ?
_diffrn_radiation_type                   'X-rays, Cu Ka'
_diffrn_reflns_number                    ?
_exptl_absorpt_coefficient_mu            ?
_exptl_absorpt_correction_type           ?
_computing_structure_solution            'starting values from the literature'
_refine_ls_number_parameters             ?
_refine_ls_number_reflns                 ?
_refine_ls_R_factor_gt                   ?
_refine_ls_wR_factor_gt                  ?
_pd_proc_ls_proof_R_factor               0.13
_pd_proc_ls_proof_wR_factor              ?
_refine_ls_R_I_factor                    ?

# Published diffraction lines

loop_
 _refln_index_h
 _refln_index_k
 _refln_index_l
 _refln_d_spacing
 _refln_intensity_meas
 2 0 0 4.445 0.7
 2 8 0 3.218 2.0
 3 1 0 2.961 1.1
 0 12 1 2.69 23.4
 3 7 0 2.594 1.0
 3 3 1 2.544 2.1
 3 5 1 2.453 2.1
 3 9 0 2.411 0.9
 0 16 0 2.327 6.5
 2 12 1 2.299 21.9
 4 0 0 2.225 5.8
 3 11 1 2.061 20.3
 4 8 0 2.007 5.4
 3 1 2 1.989 1.3
 3 7 2 1.866 2.3
 3 9 2 1.794 1.2
 3 17 0 1.761 0.7
 4 12 1 1.713 9.0
 0 24 0 1.551 12.6
 3 21 0 1.522 1.5
 3 5 3 1.502 1.0
 6 0 0 1.483 1.4
 3 17 2 1.472 1.5
 2 24 0 1.464 13.3
 4 16 2 1.38 6.9
 0 24 2 1.344 18.1
 6 12 1 1.299 23.5
 2 24 2 1.286 1.2
 4 24 0 1.273 7.3
 3 17 3 1.256 1.1
 3 7 4 1.193 1.3
 4 24 2 1.15 16.4
 2 32 0 1.126 5.9
 4 28 1 1.117 5.0
 8 0 0 1.113 3.4
 6 24 0 1.073 16.7

# End of data set 540622

