##############################################################################
#                                                                            #
# Ge-Ho-Os         # Ho3Os4Ge13                                    #  542978 #
#                                                                            #
##############################################################################
#                                                                            #
#                           Pearson's Crystal Data                           #
#      Crystal Structure Database for Inorganic Compounds (on DVD)           #
#                              Release 2023/24                               #
#                  Editors: Pierre Villars and Karin Cenzual                 #
#                                                                            #
#   Copyright (c) ASM International & Material Phases Data System (MPDS),    #
# Switzerland & National Institute for Materials Science (NIMS), Japan, 2023 #
#                   All rights reserved. Version 2023.07                     #
#                                                                            #
#   This copy of Pearson's Crystal Data is licensed to:                      #
#   Hunter College - City University of New York                             #
#                                                                            #
##############################################################################

data_542978
_audit_creation_date                     2024-02-25
_audit_creation_method
;
Pearson's Crystal Data browser
;
#_database_code_PCD                      542978
_database_code_PDF                       04-009-0517

# Entry summary

_chemical_formula_structural             'Ho~3~ Os~4~ Ge~13~'
_chemical_formula_sum                    'Ge13.24 Ho3 Os4'
_chemical_name_mineral                   ?
_chemical_compound_source                ?
_chemical_name_structure_type            Y~3~Co~4~Ge~13~,cP64,223
_chemical_formula_weight                 2199.3

# Bibliographic data

_publ_section_title                      'The Ho-Os-Ge system'
_journal_coden_ASTM                      RJICAQ
_journal_name_full                       'Russ. J. Inorg. Chem.'
_journal_year                            1991
_journal_volume                          36
_journal_page_first                      1353
_journal_page_last                       1355
_journal_language                        English
loop_
 _publ_author_name
 _publ_author_address
'Bodak O.I.'
;
Lviv Ivan Franko State University
Department of Inorganic Chemistry
Lviv
Ukraine
;
'Sologub O.L.'
;
Lviv Ivan Franko State University
Department of Inorganic Chemistry
Lviv
Ukraine
;

# Standardized crystallographic data

_cell_length_a                           8.9737
_cell_length_b                           8.9737
_cell_length_c                           8.9737
_cell_angle_alpha                        90
_cell_angle_beta                         90
_cell_angle_gamma                        90
_cell_volume                             722.63
_cell_formula_units_Z                    2
_space_group_IT_number                   223
_space_group_name_H-M_alt                'P m -3 n'
loop_
 _space_group_symop_id
 _space_group_symop_operation_xyz
 1 'x, y, z'
 2 '1/2-x, 1/2-z, 1/2-y'
 3 '1/2-x, 1/2-z, 1/2+y'
 4 '1/2-x, 1/2+z, 1/2-y'
 5 '1/2-x, 1/2+z, 1/2+y'
 6 '-x, -y, -z'
 7 '-x, -y, z'
 8 '-x, y, -z'
 9 '-x, y, z'
 10 '1/2-y, 1/2-x, 1/2-z'
 11 '1/2-y, 1/2-x, 1/2+z'
 12 '1/2-y, 1/2+x, 1/2-z'
 13 '1/2-y, 1/2+x, 1/2+z'
 14 '-y, -z, -x'
 15 '-y, -z, x'
 16 '-y, z, -x'
 17 '-y, z, x'
 18 '1/2-z, 1/2-y, 1/2-x'
 19 '1/2-z, 1/2-y, 1/2+x'
 20 '1/2-z, 1/2+y, 1/2-x'
 21 '1/2-z, 1/2+y, 1/2+x'
 22 '-z, -x, -y'
 23 '-z, -x, y'
 24 '-z, x, -y'
 25 '-z, x, y'
 26 '1/2+x, 1/2-z, 1/2-y'
 27 '1/2+x, 1/2-z, 1/2+y'
 28 '1/2+x, 1/2+z, 1/2-y'
 29 '1/2+x, 1/2+z, 1/2+y'
 30 'x, -y, -z'
 31 'x, -y, z'
 32 'x, y, -z'
 33 '1/2+y, 1/2-x, 1/2-z'
 34 '1/2+y, 1/2-x, 1/2+z'
 35 '1/2+y, 1/2+x, 1/2-z'
 36 '1/2+y, 1/2+x, 1/2+z'
 37 'y, -z, -x'
 38 'y, -z, x'
 39 'y, z, -x'
 40 'y, z, x'
 41 '1/2+z, 1/2-y, 1/2-x'
 42 '1/2+z, 1/2-y, 1/2+x'
 43 '1/2+z, 1/2+y, 1/2-x'
 44 '1/2+z, 1/2+y, 1/2+x'
 45 'z, -x, -y'
 46 'z, -x, y'
 47 'z, x, -y'
 48 'z, x, y'
loop_
 _atom_type_symbol
 Ge
 Os
 Ho
loop_
 _atom_site_label
 _atom_site_type_symbol
 _atom_site_symmetry_multiplicity
 _atom_site_Wyckoff_symbol
 _atom_site_fract_x
 _atom_site_fract_y
 _atom_site_fract_z
 _atom_site_occupancy
 Ge3 Ge 24 k 0 0.152 0.292 0.69
 Ge2 Ge 24 k 0 0.151 0.351 0.33
 Os Os 8 e 0.25 0.25 0.25 1
 Ho Ho 6 c 0.25 0 0.5 1
 Ge1 Ge 2 a 0 0 0 1


_exptl_crystal_colour                    ?
_exptl_crystal_density_meas              ?
_exptl_crystal_density_diffrn            10.11
_cell_measurement_temperature            ?
_cell_measurement_radiation              'X-rays, Cr Ka'
_cell_measurement_reflns_used            ?
_diffrn_ambient_temperature              ?
_diffrn_measurement_device               'automatic diffractometer'
_diffrn_measurement_device_type          HZG-4A
_diffrn_radiation_type                   'X-rays, Cr Ka'
_diffrn_reflns_number                    ?
_exptl_absorpt_coefficient_mu            ?
_exptl_absorpt_correction_type           ?
_computing_structure_solution            'starting values from the literature'
_refine_ls_number_parameters             ?
_refine_ls_number_reflns                 ?
_refine_ls_R_factor_gt                   0.063
_refine_ls_wR_factor_gt                  ?
_pd_proc_ls_proof_R_factor               ?
_pd_proc_ls_proof_wR_factor              ?
_refine_ls_R_I_factor                    ?

# Published diffraction lines

loop_
 _refln_index_h
 _refln_index_k
 _refln_index_l
 _refln_d_spacing
 _refln_intensity_meas
 0 0 2 4.5 565
 0 1 2 4 78
 1 1 2 3.7 29
 0 2 2 3.2 337
 0 1 3 2.84 19
 2 2 2 2.59 526
 0 2 3 2.49 999
 1 2 3 2.4 351
 0 0 4 2.24 597
 0 1 4 2.18 131
 0 3 3 2.11 668
 0 2 4 2.01 555
 1 2 4 1.958 39
 2 3 3 1.913 15
 2 2 4 1.833 599
 0 3 4 1.795 29
 1 3 4 1.76 32
 2 3 4 1.666 79
 1 2 5 1.638 12
 0 4 4 1.586 160
 3 3 4 1.539 105
 1 3 5 1.517 14
 0 0 6 1.496 94
 0 1 6 1.475 18
 1 1 6 1.456 67
 0 2 6 1.419 125
 1 2 6 1.401 39
 1 4 5 1.385 3
 2 2 6 1.353 342
 0 3 6 1.338 60
 1 3 6 1.323 28
 4 4 4 1.295 78
 2 3 6 1.283 51
 3 4 5 1.269 18
 0 4 6 1.243 73
 0 2 7 1.233 48
 3 3 6 1.221 5
 2 4 6 1.199 122

# End of data set 542978

