##############################################################################
#                                                                            #
# Fe-Si-Y          # Y2Fe15Si2 ht                                  #  548237 #
#                                                                            #
##############################################################################
#                                                                            #
#                           Pearson's Crystal Data                           #
#      Crystal Structure Database for Inorganic Compounds (on DVD)           #
#                              Release 2023/24                               #
#                  Editors: Pierre Villars and Karin Cenzual                 #
#                                                                            #
#   Copyright (c) ASM International & Material Phases Data System (MPDS),    #
# Switzerland & National Institute for Materials Science (NIMS), Japan, 2023 #
#                   All rights reserved. Version 2023.07                     #
#                                                                            #
#   This copy of Pearson's Crystal Data is licensed to:                      #
#   Hunter College - City University of New York                             #
#                                                                            #
##############################################################################

data_548237
_audit_creation_date                     2024-02-24
_audit_creation_method
;
Pearson's Crystal Data browser
;
#_database_code_PCD                      548237
_database_code_PDF                       04-005-8653

# Entry summary

_chemical_formula_structural             'Y~2~ Fe~15.3~ Si~1.7~'
_chemical_formula_sum                    'Fe15.3 Si1.7 Y2'
_chemical_name_mineral                   ?
_chemical_compound_source                ?
_chemical_name_structure_type            Th~2~Ni~17~,hP38,194
_chemical_formula_weight                 1080.0

# Bibliographic data

_publ_section_title
;
Electronic, Magnetic, and Structural Properties of the Alloys Y~2~(Fe~1-x~M~x~)~17~, where M= Al and Si
;
_journal_coden_ASTM                      PSSABA
_journal_name_full                       'Phys. Status Solidi A'
_journal_year                            1996
_journal_volume                          155
_journal_page_first                      479
_journal_page_last                       483
_journal_language                        English
loop_
 _publ_author_name
 _publ_author_address
'Kuchin A.G.'
;
Ural State University
Institute of Metal Physics
Yekaterinburg
Russia
;
'Kourov N.I.'
;
Ural State University
Institute of Metal Physics
Yekaterinburg
Russia
;
'Knyazev Y.V.'
;
Ural State University
Institute of Metal Physics
Yekaterinburg
Russia
;
'Kleinerman N.M.'
;
Ural State University
Institute of Metal Physics
Yekaterinburg
Russia
;
'Serikov V.V.'
;
Ural State University
Institute of Metal Physics
Yekaterinburg
Russia
;
'Ivanova G.V.'
;
Ural State University
Institute of Metal Physics
Yekaterinburg
Russia
;
'Ermolenko A.S.'
;
Ural State University
Institute of Metal Physics
Yekaterinburg
Russia
;

# Standardized crystallographic data

_cell_length_a                           8.44
_cell_length_b                           8.44
_cell_length_c                           8.3
_cell_angle_alpha                        90
_cell_angle_beta                         90
_cell_angle_gamma                        120
_cell_volume                             512
_cell_formula_units_Z                    2
_space_group_IT_number                   194
_space_group_name_H-M_alt                'P 63/m m c'
loop_
 _space_group_symop_id
 _space_group_symop_operation_xyz
 1 'x, y, z'
 2 '-x+y, -x, 1/2-z'
 3 '-x+y, -x, z'
 4 '-x+y, y, 1/2-z'
 5 '-x+y, y, z'
 6 '-x, -x+y, -z'
 7 '-x, -x+y, 1/2+z'
 8 '-x, -y, -z'
 9 '-x, -y, 1/2+z'
 10 '-y, -x, 1/2-z'
 11 '-y, -x, z'
 12 '-y, x-y, 1/2-z'
 13 '-y, x-y, z'
 14 'x, x-y, 1/2-z'
 15 'x, x-y, z'
 16 'x, y, 1/2-z'
 17 'x-y, -y, -z'
 18 'x-y, -y, 1/2+z'
 19 'x-y, x, -z'
 20 'x-y, x, 1/2+z'
 21 'y, -x+y, -z'
 22 'y, -x+y, 1/2+z'
 23 'y, x, -z'
 24 'y, x, 1/2+z'

# Atomic positions taken from type-defining entry

loop_
 _atom_type_symbol
 Fe
 Si
 Y
loop_
 _atom_site_label
 _atom_site_type_symbol
 _atom_site_symmetry_multiplicity
 _atom_site_Wyckoff_symbol
 _atom_site_fract_x
 _atom_site_fract_y
 _atom_site_fract_z
 _atom_site_occupancy
 Fe1A Fe 12 k 0.1667 0.3334 0.0 0.900
 Si1B Si 12 k 0.1667 0.3334 0.0 0.100
 Fe2A Fe 12 j 0.0 0.3333 0.25 0.900
 Si2B Si 12 j 0.0 0.3333 0.25 0.100
 Fe3A Fe 6 g 0.5 0 0 0.900
 Si3B Si 6 g 0.5 0 0 0.100
 Fe4A Fe 4 f 0.333333 0.666667 0.61 0.900
 Si4B Si 4 f 0.333333 0.666667 0.61 0.100
 Y1 Y 2 c 0.333333 0.666667 0.25 1
 Y2 Y 2 b 0 0 0.25 1


_exptl_crystal_colour                    ?
_exptl_crystal_density_meas              ?
_exptl_crystal_density_diffrn            7.01
_cell_measurement_temperature            ?
_cell_measurement_radiation              X-rays
_cell_measurement_reflns_used            ?
_diffrn_ambient_temperature              ?
_diffrn_measurement_device               diffractometer
_diffrn_measurement_device_type          ?
_diffrn_radiation_type                   ?
_diffrn_reflns_number                    ?
_exptl_absorpt_coefficient_mu            ?
_exptl_absorpt_correction_type           ?
_computing_structure_solution            ?
_refine_ls_number_parameters             ?
_refine_ls_number_reflns                 ?
_refine_ls_R_factor_gt                   ?
_refine_ls_wR_factor_gt                  ?

# End of data set 548237

