##############################################################################
#                                                                            #
# Fe-Si-Y          # Y2Fe15Si2 ht                                  #  552322 #
#                                                                            #
##############################################################################
#                                                                            #
#                           Pearson's Crystal Data                           #
#      Crystal Structure Database for Inorganic Compounds (on DVD)           #
#                              Release 2023/24                               #
#                  Editors: Pierre Villars and Karin Cenzual                 #
#                                                                            #
#   Copyright (c) ASM International & Material Phases Data System (MPDS),    #
# Switzerland & National Institute for Materials Science (NIMS), Japan, 2023 #
#                   All rights reserved. Version 2023.07                     #
#                                                                            #
#   This copy of Pearson's Crystal Data is licensed to:                      #
#   Hunter College - City University of New York                             #
#                                                                            #
##############################################################################

data_552322
_audit_creation_date                     2024-02-24
_audit_creation_method
;
Pearson's Crystal Data browser
;
#_database_code_PCD                      552322
_database_code_PDF                       04-006-1534

# Entry summary

_chemical_formula_structural             'Y~2~ Fe~15~ Si~2~'
_chemical_formula_sum                    'Fe15.02 Si1.98 Y2'
_chemical_name_mineral                   ?
_chemical_compound_source                ?
_chemical_name_structure_type            Th~2~Ni~17~,hP38,194
_chemical_formula_weight                 1071.7

# Bibliographic data

_publ_section_title
'Magnetic properties of Si-substituted Y~2~Fe~17~'                            
_journal_coden_ASTM                      SSCOA4
_journal_name_full                       'Solid State Commun.'
_journal_year                            1992
_journal_volume                          81
_journal_page_first                      299
_journal_page_last                       301
_journal_language                        English
loop_
 _publ_author_name
 _publ_author_address
'Lin C.'
;
Peking University
Department of Physics
Beijing
China
;
'Sun Y.X.'
;
Peking University
Department of Physics
Beijing
China
;
'Liu Z.X.'
;
Peking University
Department of Physics
Beijing
China
;
'Jiang H.W.'
;
Peking University
Department of Physics
Beijing
China
;
'Jiang G.'
;
Peking University
Department of Physics
Beijing
China
;
'Yang J.L.'
;
Chinese Academy of Sciences
Institute of Atomic Energy
Beijing
China
;
'Zhang B.S.'
;
Chinese Academy of Sciences
Institute of Atomic Energy
Beijing
China
;
'Ding Y.F.'
;
Chinese Academy of Sciences
Institute of Atomic Energy
Beijing
China
;

# Standardized crystallographic data

_cell_length_a                           8.439
_cell_length_b                           8.439
_cell_length_c                           8.309
_cell_angle_alpha                        90
_cell_angle_beta                         90
_cell_angle_gamma                        120
_cell_volume                             512.46
_cell_formula_units_Z                    2
_space_group_IT_number                   194
_space_group_name_H-M_alt                'P 63/m m c'
loop_
 _space_group_symop_id
 _space_group_symop_operation_xyz
 1 'x, y, z'
 2 '-x+y, -x, 1/2-z'
 3 '-x+y, -x, z'
 4 '-x+y, y, 1/2-z'
 5 '-x+y, y, z'
 6 '-x, -x+y, -z'
 7 '-x, -x+y, 1/2+z'
 8 '-x, -y, -z'
 9 '-x, -y, 1/2+z'
 10 '-y, -x, 1/2-z'
 11 '-y, -x, z'
 12 '-y, x-y, 1/2-z'
 13 '-y, x-y, z'
 14 'x, x-y, 1/2-z'
 15 'x, x-y, z'
 16 'x, y, 1/2-z'
 17 'x-y, -y, -z'
 18 'x-y, -y, 1/2+z'
 19 'x-y, x, -z'
 20 'x-y, x, 1/2+z'
 21 'y, -x+y, -z'
 22 'y, -x+y, 1/2+z'
 23 'y, x, -z'
 24 'y, x, 1/2+z'
loop_
 _atom_type_symbol
 Fe
 Si
 Y
loop_
 _atom_site_label
 _atom_site_type_symbol
 _atom_site_symmetry_multiplicity
 _atom_site_Wyckoff_symbol
 _atom_site_fract_x
 _atom_site_fract_y
 _atom_site_fract_z
 _atom_site_occupancy
 Fe3A Fe 12 k 0.16667 0.33334 0.0103 0.89
 Si3B Si 12 k 0.16667 0.33334 0.0103 0.11
 Fe4A Fe 12 j -0.0281 0.3324 0.25 0.89
 Si4B Si 12 j -0.0281 0.3324 0.25 0.11
 Fe2A Fe 6 g 0.5 0 0 0.96
 Si2B Si 6 g 0.5 0 0 0.04
 Fe1A Fe 4 f 0.333333 0.666667 0.6126 0.73
 Si1B Si 4 f 0.333333 0.666667 0.6126 0.27
 Y2 Y 2 c 0.333333 0.666667 0.25 1
 Y1 Y 2 b 0 0 0.25 1


_exptl_crystal_colour                    ?
_exptl_crystal_density_meas              ?
_exptl_crystal_density_diffrn            6.95
_cell_measurement_temperature            ?
_cell_measurement_radiation              neutrons
_cell_measurement_wavelength             1.184
_pd_proc_wavelength                      1.184
_cell_measurement_reflns_used            ?
_diffrn_ambient_temperature              ?
_diffrn_measurement_device               'automatic diffractometer'
_diffrn_measurement_device_type
'China, Beijing, Institute of Atomic Energy, HWR reactor'                     
_diffrn_radiation_type                   neutrons
_diffrn_radiation_wavelength             1.184
_diffrn_reflns_number                    ?
_exptl_absorpt_coefficient_mu            ?
_exptl_absorpt_correction_type           ?
_computing_structure_solution            'starting values from the literature'
_refine_ls_number_parameters             ?
_refine_ls_number_reflns                 ?
_refine_ls_R_factor_gt                   ?
_refine_ls_wR_factor_gt                  ?
_pd_proc_ls_proof_R_factor               ?
_pd_proc_ls_proof_wR_factor              ?
_refine_ls_R_I_factor                    0.0255

# End of data set 552322

