##############################################################################
#                                                                            #
# Dy-Ge-Os         # Dy5Os4Ge10                                    #  560584 #
#                                                                            #
##############################################################################
#                                                                            #
#                           Pearson's Crystal Data                           #
#      Crystal Structure Database for Inorganic Compounds (on DVD)           #
#                              Release 2023/24                               #
#                  Editors: Pierre Villars and Karin Cenzual                 #
#                                                                            #
#   Copyright (c) ASM International & Material Phases Data System (MPDS),    #
# Switzerland & National Institute for Materials Science (NIMS), Japan, 2023 #
#                   All rights reserved. Version 2023.07                     #
#                                                                            #
#   This copy of Pearson's Crystal Data is licensed to:                      #
#   Hunter College - City University of New York                             #
#                                                                            #
##############################################################################

data_560584
_audit_creation_date                     2024-02-24
_audit_creation_method
;
Pearson's Crystal Data browser
;
#_database_code_PCD                      560584
_database_code_PDF                       04-006-7779

# Entry summary

_chemical_formula_structural             'Dy~5~ Os~4~ Ge~10~'
_chemical_formula_sum                    'Dy5 Ge10 Os4'
_chemical_name_mineral                   ?
_chemical_compound_source                ?
_chemical_name_structure_type            Sc~5~Co~4~Si~10~,tP38,127
_chemical_formula_weight                 2299.2

# Bibliographic data

_publ_section_title
'Heat-capacity studies in the Y~5-x~Dy~x~Os~4~Ge~10~ system'                  
_journal_coden_ASTM                      PRBMDO
_journal_name_full
'Phys. Rev. B: Condens. Matter Mater. Phys.'                                  
_journal_year                            1995
_journal_volume                          51
_journal_page_first                      11656
_journal_page_last                       11663
_journal_language                        English
loop_
 _publ_author_name
 _publ_author_address
'Ghosh K.'
;
Tata Institute of Fundamental Research (TIFR)
Mumbai / Maharashtra
India
;
'Ramakrishnan S.'
;
Tata Institute of Fundamental Research (TIFR)
Mumbai / Maharashtra
India
;
'Chinchure A.D.'
;
Dr. Babasaheb Ambedkar Marathwada University (BAMU)
Aurangabad / Maharashtra
India
;
'Jonason K.'
;
Tata Institute of Fundamental Research (TIFR)
Mumbai / Maharashtra
India
;
'Marathe V.R.'
;
Tata Institute of Fundamental Research (TIFR)
Mumbai / Maharashtra
India
;
'Chandra G.'
;
Tata Institute of Fundamental Research (TIFR)
Mumbai / Maharashtra
India
;
'Shah S.S.'
;
Dr. Babasaheb Ambedkar Marathwada University (BAMU)
Aurangabad / Maharashtra
India
;

# Standardized crystallographic data

_cell_length_a                           13.034
_cell_length_b                           13.034
_cell_length_c                           4.295
_cell_angle_alpha                        90
_cell_angle_beta                         90
_cell_angle_gamma                        90
_cell_volume                             729.7
_cell_formula_units_Z                    2
_space_group_IT_number                   127
_space_group_name_H-M_alt                'P 4/m b m'
loop_
 _space_group_symop_id
 _space_group_symop_operation_xyz
 1 'x, y, z'
 2 '1/2-x, 1/2+y, -z'
 3 '1/2-x, 1/2+y, z'
 4 '-x, -y, -z'
 5 '-x, -y, z'
 6 '1/2-y, 1/2-x, -z'
 7 '1/2-y, 1/2-x, z'
 8 '-y, x, -z'
 9 '-y, x, z'
 10 '1/2+x, 1/2-y, -z'
 11 '1/2+x, 1/2-y, z'
 12 'x, y, -z'
 13 '1/2+y, 1/2+x, -z'
 14 '1/2+y, 1/2+x, z'
 15 'y, -x, -z'
 16 'y, -x, z'

# Atomic positions taken from type-defining entry

loop_
 _atom_type_symbol
 Ge
 Os
 Dy
loop_
 _atom_site_label
 _atom_site_type_symbol
 _atom_site_symmetry_multiplicity
 _atom_site_Wyckoff_symbol
 _atom_site_fract_x
 _atom_site_fract_y
 _atom_site_fract_z
 _atom_site_occupancy
 Ge1 Ge 8 j 0.1638 0.0031 0.5 1
 Ge2 Ge 8 i 0.1575 0.1985 0 1
 Os1 Os 8 i 0.246 0.024 0 1
 Dy1 Dy 4 h 0.1756 0.6756 0.5 1
 Dy2 Dy 4 h 0.6118 0.1118 0.5 1
 Ge3 Ge 4 g 0.0679 0.5679 0 1
 Dy3 Dy 2 a 0 0 0 1


_exptl_crystal_colour                    ?
_exptl_crystal_density_meas              ?
_exptl_crystal_density_diffrn            10.47
_cell_measurement_temperature            ?
_cell_measurement_radiation              X-rays
_cell_measurement_reflns_used            ?
_diffrn_ambient_temperature              ?
_diffrn_measurement_device               diffractometer
_diffrn_measurement_device_type          ?
_diffrn_radiation_type                   ?
_diffrn_reflns_number                    ?
_exptl_absorpt_coefficient_mu            ?
_exptl_absorpt_correction_type           ?
_computing_structure_solution            ?
_refine_ls_number_parameters             ?
_refine_ls_number_reflns                 ?
_refine_ls_R_factor_gt                   ?
_refine_ls_wR_factor_gt                  ?

# End of data set 560584

