##############################################################################
#                                                                            #
# Ce-Ge-Ru         # CeRuGe3 cub                                   #  560669 #
#                                                                            #
##############################################################################
#                                                                            #
#                           Pearson's Crystal Data                           #
#      Crystal Structure Database for Inorganic Compounds (on DVD)           #
#                              Release 2023/24                               #
#                  Editors: Pierre Villars and Karin Cenzual                 #
#                                                                            #
#   Copyright (c) ASM International & Material Phases Data System (MPDS),    #
# Switzerland & National Institute for Materials Science (NIMS), Japan, 2023 #
#                   All rights reserved. Version 2023.07                     #
#                                                                            #
#   This copy of Pearson's Crystal Data is licensed to:                      #
#   Hunter College - City University of New York                             #
#                                                                            #
##############################################################################

data_560669
_audit_creation_date                     2024-02-24
_audit_creation_method
;
Pearson's Crystal Data browser
;
#_database_code_PCD                      560669
_database_code_PDF                       ?

# Entry summary

_chemical_formula_structural             'Ce Ru Ge~3~'
_chemical_formula_sum                    'Ce Ge3 Ru'
_chemical_name_mineral                   ?
_chemical_compound_source                ?
_chemical_name_structure_type            LaRuSn~3~,cP40,223
_chemical_formula_weight                 459.0

# Bibliographic data

_publ_section_title
;
Crystal structures and low-temperature behaviors of the heavy-fermion compounds CeRuGe~3~ and Ce~3~Ru~4~Ge~13~ containing both trivalent and tetravalent cerium
;
_journal_coden_ASTM                      PRBMDO
_journal_name_full
'Phys. Rev. B: Condens. Matter Mater. Phys.'                                  
_journal_year                            1995
_journal_volume                          52
_journal_page_first                      7267
_journal_page_last                       7277
_journal_language                        English
loop_
 _publ_author_name
 _publ_author_address
'Ghosh K.'
;
Tata Institute of Fundamental Research (TIFR)
Mumbai / Maharashtra
India
;
'Ramakrishnan S.'
;
Tata Institute of Fundamental Research (TIFR)
Mumbai / Maharashtra
India
;
'Dhar S.K.'
;
Tata Institute of Fundamental Research (TIFR)
Mumbai / Maharashtra
India
;
'Malik S.K.'
;
Tata Institute of Fundamental Research (TIFR)
Mumbai / Maharashtra
India
;
'Chandra G.'
;
Tata Institute of Fundamental Research (TIFR)
Mumbai / Maharashtra
India
;
'Pecharskii V.K.'
;
Iowa State University of Science and Technology (ISU)
Ames National Laboratory - Department of Materials Science and Engineering
Ames
U.S.A. Iowa
;
'Gschneidner K.A. Jr.'
;
Iowa State University of Science and Technology (ISU)
Ames National Laboratory - Department of Materials Science and Engineering
Ames
U.S.A. Iowa
;
'Hu Z.'
;
Missouri University (MU)
Columbia
U.S.A. Missouri
;
'Yelon W.B.'
;
Missouri University (MU)
Columbia
U.S.A. Missouri
;

# Standardized crystallographic data

_cell_length_a                           9.0061
_cell_length_b                           9.0061
_cell_length_c                           9.0061
_cell_angle_alpha                        90
_cell_angle_beta                         90
_cell_angle_gamma                        90
_cell_volume                             730.5
_cell_formula_units_Z                    8
_space_group_IT_number                   223
_space_group_name_H-M_alt                'P m -3 n'
loop_
 _space_group_symop_id
 _space_group_symop_operation_xyz
 1 'x, y, z'
 2 '1/2-x, 1/2-z, 1/2-y'
 3 '1/2-x, 1/2-z, 1/2+y'
 4 '1/2-x, 1/2+z, 1/2-y'
 5 '1/2-x, 1/2+z, 1/2+y'
 6 '-x, -y, -z'
 7 '-x, -y, z'
 8 '-x, y, -z'
 9 '-x, y, z'
 10 '1/2-y, 1/2-x, 1/2-z'
 11 '1/2-y, 1/2-x, 1/2+z'
 12 '1/2-y, 1/2+x, 1/2-z'
 13 '1/2-y, 1/2+x, 1/2+z'
 14 '-y, -z, -x'
 15 '-y, -z, x'
 16 '-y, z, -x'
 17 '-y, z, x'
 18 '1/2-z, 1/2-y, 1/2-x'
 19 '1/2-z, 1/2-y, 1/2+x'
 20 '1/2-z, 1/2+y, 1/2-x'
 21 '1/2-z, 1/2+y, 1/2+x'
 22 '-z, -x, -y'
 23 '-z, -x, y'
 24 '-z, x, -y'
 25 '-z, x, y'
 26 '1/2+x, 1/2-z, 1/2-y'
 27 '1/2+x, 1/2-z, 1/2+y'
 28 '1/2+x, 1/2+z, 1/2-y'
 29 '1/2+x, 1/2+z, 1/2+y'
 30 'x, -y, -z'
 31 'x, -y, z'
 32 'x, y, -z'
 33 '1/2+y, 1/2-x, 1/2-z'
 34 '1/2+y, 1/2-x, 1/2+z'
 35 '1/2+y, 1/2+x, 1/2-z'
 36 '1/2+y, 1/2+x, 1/2+z'
 37 'y, -z, -x'
 38 'y, -z, x'
 39 'y, z, -x'
 40 'y, z, x'
 41 '1/2+z, 1/2-y, 1/2-x'
 42 '1/2+z, 1/2-y, 1/2+x'
 43 '1/2+z, 1/2+y, 1/2-x'
 44 '1/2+z, 1/2+y, 1/2+x'
 45 'z, -x, -y'
 46 'z, -x, y'
 47 'z, x, -y'
 48 'z, x, y'
loop_
 _atom_type_symbol
 Ge
 Ru
 Ce
loop_
 _atom_site_label
 _atom_site_type_symbol
 _atom_site_symmetry_multiplicity
 _atom_site_Wyckoff_symbol
 _atom_site_fract_x
 _atom_site_fract_y
 _atom_site_fract_z
 _atom_site_occupancy
 Ge Ge 24 k 0 0.1577 0.3223 1
 Ru Ru 8 e 0.25 0.25 0.25 1
 Ce1 Ce 6 c 0.25 0 0.5 1
 Ce2 Ce 2 a 0 0 0 1


_exptl_crystal_colour                    ?
_exptl_crystal_density_meas              ?
_exptl_crystal_density_diffrn            8.35
_cell_measurement_temperature            ?
_cell_measurement_radiation              'X-rays, Cu Ka'
_cell_measurement_reflns_used            ?
_diffrn_ambient_temperature              ?
_diffrn_measurement_device               'automatic diffractometer'
_diffrn_measurement_device_type          Scintag
_diffrn_radiation_type                   'X-rays, Cu Ka'
_diffrn_reflns_number                    ?
_exptl_absorpt_coefficient_mu            ?
_exptl_absorpt_correction_type           ?
_computing_structure_solution            ?
_refine_ls_number_parameters             ?
_refine_ls_number_reflns                 ?
_refine_ls_R_factor_gt                   ?
_refine_ls_wR_factor_gt                  ?
_pd_proc_ls_proof_R_factor               ?
_pd_proc_ls_proof_wR_factor              ?
_refine_ls_R_I_factor                    0.052

# End of data set 560669

